{"data": {"id": 147393, "parentId": null, "children": [], "siblings": [], "revisionParentId": null, "revisionChildren": [{"id": 490006, "name": "RISD Lithium Blue Clone", "createdByUserId": 63759}], "name": "RISD Lithium Blue", "otherNames": null, "formula": null, "description": "Glaze from Andrea Gill handout of glazes she compiled during her tenure at Alfred University.", "isAnalysis": false, "isPrimitive": false, "isArchived": false, "default_locale": "en", "materialStateId": 1, "materialStateName": "Testing", "materialTypeId": 460, "baseTypeId": 460, "materialType": {"id": 460, "parentMaterialType": {"id": 100}}, "fromOrtonConeId": 20, "fromOrtonConeName": "04", "toOrtonConeId": 20, "toOrtonConeName": "04", "kilnSchedule": null, "waterAmount": null, "specificGravity": null, "thumbnailId": 43705, "ratingTotal": 0, "ratingNumber": 0, "ratingAverage": "0.00", "isPrivate": false, "createdByUserId": 7337, "createdAt": "2021-05-14T19:05:58", "createdAtHuman": "14 May 2021", "createdAtDiff": "3 years ago", "updatedAt": "2022-03-24T18:24:51", "updatedAtHuman": "24 Mar 2022", "updatedAtDiff": "2 years ago", "materialComponentTotalAmount": 99, "atmospheres": [], "materialComponents": [{"percentageAmount": "52.0000", "isAdditional": false, "material": {"id": 15400, "name": "Silica", "isAnalysis": false, "isPrimitive": true, "isPrivate": false, "isArchived": true, "materialStateId": 2, "analysis": {"percentageAnalysis": {"SiO2": "100.0000", "loi": "0.0000"}, "umfAnalysis": {"SiO2Al2O3Ratio": "0.0000", "R2OTotal": "0.0000", "ROTotal": "0.0000"}, "xUmfAnalysis": {"SiO2Al2O3Ratio": "0.0000", "SiO2xAl2O3Ratio": null, "xAl2O3": null, "R2OTotal": "0.0000", "ROTotal": "0.0000"}, "molPercentageAnalysis": {"SiO2": "100.0000"}, "formulaAnalysis": {"SiO2": "1.0000"}, "thermalExpansion": "3.5000", "weight": "60.1000", "oxideWeight": "60.0844"}, "thumbnail": {"id": 4900, "materialId": 15400, "title": "", "filename": "15400.5a6a6c135b2e7.jpg", "createdByUserId": 1, "createdAtDiff": "6 years ago"}}}, {"percentageAmount": "26.5000", "isAdditional": false, "material": {"id": 15323, "name": "Lithium Carbonate", "isAnalysis": false, "isPrimitive": true, "isPrivate": false, "isArchived": true, "materialStateId": 2, "analysis": {"percentageAnalysis": {"Li2O": "40.7400", "loi": "59.2600"}, "umfAnalysis": {"Li2O": "1.0000", "SiO2Al2O3Ratio": "0.0000", "R2OTotal": "1.0000", "ROTotal": "0.0000"}, "xUmfAnalysis": {"Li2O": "1.0000", "SiO2Al2O3Ratio": "0.0000", "SiO2xAl2O3Ratio": null, "xAl2O3": null, "R2OTotal": "1.0000", "ROTotal": "0.0000"}, "molPercentageAnalysis": {"Li2O": "100.0000"}, "formulaAnalysis": {"Li2O": "1.0000"}, "thermalExpansion": "6.8000", "weight": "0.0000", "oxideWeight": "29.8818"}, "thumbnail": {"id": 16818, "materialId": 15323, "title": null, "filename": "15323.5de7cfcfa101e.jpg", "createdByUserId": 7, "createdAtDiff": "4 years ago"}}}, {"percentageAmount": "11.5000", "isAdditional": false, "material": {"id": 15137, "name": "EP Kaolin", "isAnalysis": false, "isPrimitive": true, "isPrivate": false, "isArchived": true, "materialStateId": 2, "analysis": {"percentageAnalysis": {"SiO2": "45.7270", "Al2O3": "37.3603", "Na2O": "0.0681", "K2O": "0.3451", "MgO": "0.1034", "CaO": "0.1849", "P2O5": "0.2601", "TiO2": "0.3804", "Fe2O3": "0.7607", "loi": "14.8100"}, "umfAnalysis": {"SiO2": "71.6261", "Al2O3": "34.4859", "Na2O": "0.1034", "K2O": "0.3448", "MgO": "0.2415", "CaO": "0.3103", "P2O5": "0.1725", "TiO2": "0.4483", "Fe2O3": "0.4483", "SiO2Al2O3Ratio": "2.0770", "R2OTotal": "0.4482", "ROTotal": "0.5518"}, "xUmfAnalysis": {"SiO2": "49.4540", "Al2O3": "23.8106", "Na2O": "0.0714", "K2O": "0.2381", "MgO": "0.1667", "CaO": "0.2143", "P2O5": "0.1191", "TiO2": "0.3095", "Fe2O3": "0.3096", "SiO2Al2O3Ratio": "2.0770", "SiO2xAl2O3Ratio": "2.0503", "xAl2O3": "24.1202", "R2OTotal": "0.3095", "ROTotal": "0.6905"}, "molPercentageAnalysis": {"SiO2": "66.2095", "Al2O3": "31.8779", "Na2O": "0.0956", "K2O": "0.3187", "MgO": "0.2232", "CaO": "0.2869", "P2O5": "0.1594", "TiO2": "0.4144", "Fe2O3": "0.4144"}, "formulaAnalysis": {"SiO2": "2.0770", "Al2O3": "1.0000", "Na2O": "0.0030", "K2O": "0.0100", "MgO": "0.0070", "CaO": "0.0090", "P2O5": "0.0050", "TiO2": "0.0130", "Fe2O3": "0.0130"}, "thermalExpansion": "5.0178", "weight": "0.0000", "oxideWeight": "232.4953"}, "thumbnail": {"id": 4952, "materialId": 15137, "title": "", "filename": "15137.5a6ba32627dcd.jpg", "createdByUserId": 1, "createdAtDiff": "6 years ago"}}}, {"percentageAmount": "3.7000", "isAdditional": false, "material": {"id": 15120, "name": "Copper Carbonate", "isAnalysis": false, "isPrimitive": true, "isPrivate": false, "isArchived": true, "materialStateId": 2, "analysis": {"percentageAnalysis": {"CuO": "64.3800", "loi": "35.6200"}, "umfAnalysis": {"SiO2Al2O3Ratio": "0.0000", "R2OTotal": "0.0000", "ROTotal": "0.0000"}, "xUmfAnalysis": {"CuO": "1.0000", "SiO2Al2O3Ratio": "0.0000", "SiO2xAl2O3Ratio": null, "xAl2O3": null, "R2OTotal": "1.0000", "ROTotal": "0.0000"}, "molPercentageAnalysis": {"CuO": "100.0000"}, "formulaAnalysis": {"CuO": "1.0000"}, "thermalExpansion": "0.0000", "weight": "79.5400", "oxideWeight": "79.5454"}, "thumbnail": {"id": 16812, "materialId": 15120, "title": null, "filename": "15120.5de7cc4e7969f.jpg", "createdByUserId": 7, "createdAtDiff": "4 years ago"}}}, {"percentageAmount": "3.3000", "isAdditional": false, "material": {"id": 15457, "name": "Whiting", "isAnalysis": false, "isPrimitive": true, "isPrivate": false, "isArchived": true, "materialStateId": 2, "analysis": {"percentageAnalysis": {"CaO": "56.1000", "loi": "43.9000"}, "umfAnalysis": {"CaO": "1.0000", "SiO2Al2O3Ratio": "0.0000", "R2OTotal": "0.0000", "ROTotal": "1.0000"}, "xUmfAnalysis": {"CaO": "1.0000", "SiO2Al2O3Ratio": "0.0000", "SiO2xAl2O3Ratio": null, "xAl2O3": null, "R2OTotal": "0.0000", "ROTotal": "1.0000"}, "molPercentageAnalysis": {"CaO": "100.0000"}, "formulaAnalysis": {"CaO": "1.0000"}, "thermalExpansion": "14.8000", "weight": "99.9590", "oxideWeight": "56.0770"}, "thumbnail": {"id": 16835, "materialId": 15457, "title": null, "filename": "15457.5de7d47035ff4.jpg", "createdByUserId": 7, "createdAtDiff": "4 years ago"}}}, {"percentageAmount": "1.0000", "isAdditional": false, "material": {"id": 15072, "name": "Bentonite", "isAnalysis": false, "isPrimitive": true, "isPrivate": false, "isArchived": true, "materialStateId": 2, "analysis": {"percentageAnalysis": {"SiO2": "59.3295", "Al2O3": "20.1153", "Na2O": "3.0194", "K2O": "1.0064", "MgO": "2.0096", "CaO": "1.0057", "Fe2O3": "3.5140", "loi": "10.0000"}, "umfAnalysis": {"SiO2": "7.7630", "Al2O3": "1.5510", "Na2O": "0.3830", "K2O": "0.0840", "MgO": "0.3920", "CaO": "0.1410", "Fe2O3": "0.1730", "SiO2Al2O3Ratio": "5.0051", "R2OTotal": "0.4670", "ROTotal": "0.5330"}, "xUmfAnalysis": {"SiO2": "6.6181", "Al2O3": "1.3223", "Na2O": "0.3265", "K2O": "0.0716", "MgO": "0.3342", "CaO": "0.1202", "Fe2O3": "0.1475", "SiO2Al2O3Ratio": "5.0051", "SiO2xAl2O3Ratio": "5.0051", "xAl2O3": "1.3223", "R2OTotal": "0.3981", "ROTotal": "0.6019"}, "molPercentageAnalysis": {"SiO2": "74.0248", "Al2O3": "14.7899", "Na2O": "3.6522", "K2O": "0.8010", "MgO": "3.7380", "CaO": "1.3445", "Fe2O3": "1.6497"}, "formulaAnalysis": {"SiO2": "5.0051", "Al2O3": "1.0000", "Na2O": "0.2469", "K2O": "0.0542", "MgO": "0.2527", "CaO": "0.0909", "Fe2O3": "0.1115"}, "thermalExpansion": "6.0953", "weight": "0.0000", "oxideWeight": "707.5601"}, "thumbnail": {"id": 4882, "materialId": 15072, "title": "", "filename": "15072.5a6a6a3c01481.jpg", "createdByUserId": 1, "createdAtDiff": "6 years ago"}}}, {"percentageAmount": "1.0000", "isAdditional": false, "material": {"id": 15080, "name": "Bone Ash", "isAnalysis": false, "isPrimitive": true, "isPrivate": false, "isArchived": true, "materialStateId": 2, "analysis": {"percentageAnalysis": {"CaO": "55.8213", "P2O5": "42.3887", "loi": "1.7900"}, "umfAnalysis": {"CaO": "1.0000", "P2O5": "0.3000", "SiO2Al2O3Ratio": "0.0000", "R2OTotal": "0.0000", "ROTotal": "1.0000"}, "xUmfAnalysis": {"CaO": "1.0000", "P2O5": "0.3000", "SiO2Al2O3Ratio": "0.0000", "SiO2xAl2O3Ratio": null, "xAl2O3": null, "R2OTotal": "0.0000", "ROTotal": "1.0000"}, "molPercentageAnalysis": {"CaO": "76.9233", "P2O5": "23.0767"}, "formulaAnalysis": {"CaO": "1.0000", "P2O5": "0.3000"}, "thermalExpansion": "8.4121", "weight": "98.7000", "oxideWeight": "98.6612"}, "thumbnail": {"id": 4884, "materialId": 15080, "title": "", "filename": "15080.5a6a6a6a2ac75.jpg", "createdByUserId": 1, "createdAtDiff": "6 years ago"}}}], "analysis": {"percentageAnalysis": {"SiO2": "58.4363", "Al2O3": "4.5430", "Li2O": "10.9052", "Na2O": "0.0384", "K2O": "0.0503", "MgO": "0.0323", "CaO": "2.4655", "P2O5": "0.4584", "TiO2": "0.0442", "Fe2O3": "0.1239", "CuO": "2.4061", "loi": "20.4966"}, "umfAnalysis": {"SiO2": "2.3671", "Al2O3": "0.1084", "Li2O": "0.8882", "Na2O": "0.0015", "K2O": "0.0013", "MgO": "0.0020", "CaO": "0.1070", "P2O5": "0.0079", "TiO2": "0.0013", "Fe2O3": "0.0019", "CuO": "0.0736", "SiO2Al2O3Ratio": "21.8276", "R2OTotal": "0.8910", "ROTotal": "0.1090"}, "xUmfAnalysis": {"SiO2": "2.2009", "Al2O3": "0.1008", "Li2O": "0.8259", "Na2O": "0.0014", "K2O": "0.0012", "MgO": "0.0018", "CaO": "0.0995", "P2O5": "0.0073", "TiO2": "0.0013", "Fe2O3": "0.0018", "CuO": "0.0685", "SiO2Al2O3Ratio": "21.8276", "SiO2xAl2O3Ratio": "21.5599", "xAl2O3": "0.1021", "R2OTotal": "0.8969", "ROTotal": "0.1031"}, "molPercentageAnalysis": {"SiO2": "66.4863", "Al2O3": "3.0460", "Li2O": "24.9490", "Na2O": "0.0424", "K2O": "0.0365", "MgO": "0.0548", "CaO": "3.0056", "P2O5": "0.2208", "TiO2": "0.0378", "Fe2O3": "0.0530", "CuO": "2.0679"}, "formulaAnalysis": {"SiO2": "0.9726", "Al2O3": "0.0446", "Li2O": "0.3650", "Na2O": "0.0006", "K2O": "0.0005", "MgO": "0.0008", "CaO": "0.0440", "P2O5": "0.0032", "TiO2": "0.0006", "Fe2O3": "0.0008", "CuO": "0.0302"}, "thermalExpansion": "4.3924", "weight": null, "oxideWeight": null}, "images": [{"id": 43705, "materialId": 147393, "title": "RISD Lithium Blue", "description": null, "ortonConeId": 20, "atmosphereId": 1, "is_color_searchable": 1, "dominantRgbR": 40, "dominantRgbG": 54, "dominantRgbB": 46, "dominantHexColor": "28362e", "secondaryRgbR": 84, "secondaryRgbG": 127, "secondaryRgbB": 113, "secondaryHexColor": "547f71", "filename": "147393.60b136ff2e903.jpg", "isPrivate": false, "createdByUser": {"id": 7337, "name": "Alfred Grinding Room - Glazes", "locale": "en", "profile": {"username": "alfredgrindingroom", "title": null, "description": null, "countryId": null, "countryName": null, "url": "http://www.alfredgrindingroom.com/", "pinterest": null, "facebook": null, "instagram": null, "artaxis": null, "paypal": null}, "is_patron": 1, "material_image_count": 345, "createdAt": "2019-02-07T13:46:17", "updatedAt": "2022-04-14T18:56:35"}, "createdByUserId": 7337, "createdAt": "2021-05-28T18:31:27", "createdAtHuman": "28 May 2021", "createdAtDiff": "3 years ago", "updatedAt": "2021-05-28T18:31:27", "updatedAtHuman": "28 May 2021", "updatedAtDiff": "3 years ago"}, {"id": 43706, "materialId": 147393, "title": "RISD Lithium Blue", "description": null, "ortonConeId": 17, "atmosphereId": 1, "is_color_searchable": 1, "dominantRgbR": 38, "dominantRgbG": 50, "dominantRgbB": 45, "dominantHexColor": "26322d", "secondaryRgbR": 114, "secondaryRgbG": 98, "secondaryRgbB": 85, "secondaryHexColor": "726255", "filename": "147393.60b13720b7394.jpg", "isPrivate": false, "createdByUser": {"id": 7337, "name": "Alfred Grinding Room - Glazes", "locale": "en", "profile": {"username": "alfredgrindingroom", "title": null, "description": null, "countryId": null, "countryName": null, "url": "http://www.alfredgrindingroom.com/", "pinterest": null, "facebook": null, "instagram": null, "artaxis": null, "paypal": null}, "is_patron": 1, "material_image_count": 345, "createdAt": "2019-02-07T13:46:17", "updatedAt": "2022-04-14T18:56:35"}, "createdByUserId": 7337, "createdAt": "2021-05-28T18:32:01", "createdAtHuman": "28 May 2021", "createdAtDiff": "3 years ago", "updatedAt": "2021-05-28T18:32:01", "updatedAtHuman": "28 May 2021", "updatedAtDiff": "3 years ago"}], "thumbnail": {"id": 43705, "materialId": 147393, "title": "RISD Lithium Blue", "description": null, "ortonConeId": 20, "atmosphereId": 1, "is_color_searchable": 1, "dominantRgbR": 40, "dominantRgbG": 54, "dominantRgbB": 46, "dominantHexColor": "28362e", "secondaryRgbR": 84, "secondaryRgbG": 127, "secondaryRgbB": 113, "secondaryHexColor": "547f71", "filename": "147393.60b136ff2e903.jpg", "isPrivate": false, "createdByUser": {"id": 7337, "name": "Alfred Grinding Room - Glazes", "locale": "en", "profile": {"username": "alfredgrindingroom", "title": null, "description": null, "countryId": null, "countryName": null, "url": "http://www.alfredgrindingroom.com/", "pinterest": null, "facebook": null, "instagram": null, "artaxis": null, "paypal": null}, "is_patron": 1, "material_image_count": 345, "createdAt": "2019-02-07T13:46:17", "updatedAt": "2022-04-14T18:56:35"}, "createdByUserId": 7337, "createdAt": "2021-05-28T18:31:27", "createdAtHuman": "28 May 2021", "createdAtDiff": "3 years ago", "updatedAt": "2021-05-28T18:31:27", "updatedAtHuman": "28 May 2021", "updatedAtDiff": "3 years ago"}, "reviews": [], "comments": [{"id": 13517, "parentId": null, "materialId": 147393, "userId": 16635, "content": "have your try substitute lithium carb for spodumeno?\r\n", "filename": null, "user": {"id": 16635, "name": "Julianavelezart", "locale": "en", "profile": {"username": "julianavelezart", "title": "Carpe Diem", "description": null, "avatar": "/uploads/profiles/69/xs_6269.62f25be379f1b.jpg", "countryId": null, "countryName": null, "url": null, "pinterest": null, "facebook": null, "instagram": "julianavelezart", "artaxis": null, "paypal": null}, "is_patron": 0, "material_image_count": 6, "createdAt": "2020-06-01T19:59:52", "updatedAt": "2024-09-02T15:35:33"}, "createdAt": "2022-03-23T18:22:26", "createdAtHuman": "23 Mar 2022", "createdAtDiff": "2 years ago", "updatedAt": "2022-03-23T18:22:26", "updatedAtHuman": "23 Mar 2022", "updatedAtDiff": "2 years ago"}, {"id": 13537, "parentId": 13517, "materialId": 147393, "userId": 1997, "content": "Juliana, You can't make this glaze with spodumene. It has too much alumina and silica combined with the lithium.", "filename": null, "user": {"id": 1997, "name": "Marc Egan", "locale": "en", "profile": {"username": "eganyyzgmailcom", "title": "", "description": null, "countryId": null, "countryName": null, "url": "marcegan.com", "pinterest": "", "facebook": null, "instagram": "pointyview", "artaxis": null, "paypal": null}, "is_patron": 1, "material_image_count": 240, "createdAt": "2016-12-05T18:07:40", "updatedAt": "2024-08-05T01:06:25"}, "createdAt": "2022-03-24T18:11:08", "createdAtHuman": "24 Mar 2022", "createdAtDiff": "2 years ago", "updatedAt": "2022-03-24T18:11:08", "updatedAtHuman": "24 Mar 2022", "updatedAtDiff": "2 years ago"}, {"id": 13540, "parentId": 13517, "materialId": 147393, "userId": 16635, "content": "Well i supposed it..thanks", "filename": null, "user": {"id": 16635, "name": "Julianavelezart", "locale": "en", "profile": {"username": "julianavelezart", "title": "Carpe Diem", "description": null, "avatar": "/uploads/profiles/69/xs_6269.62f25be379f1b.jpg", "countryId": null, "countryName": null, "url": null, "pinterest": null, "facebook": null, "instagram": "julianavelezart", "artaxis": null, "paypal": null}, "is_patron": 0, "material_image_count": 6, "createdAt": "2020-06-01T19:59:52", "updatedAt": "2024-09-02T15:35:33"}, "createdAt": "2022-03-24T18:24:51", "createdAtHuman": "24 Mar 2022", "createdAtDiff": "2 years ago", "updatedAt": "2022-03-24T18:24:51", "updatedAtHuman": "24 Mar 2022", "updatedAtDiff": "2 years ago"}], "translations": [{"id": 245910, "name": "RISD Lithium Blue", "other_names": null, "description": "Glaze from Andrea Gill handout of glazes she compiled during her tenure at Alfred University.", "locale": "en"}], "createdByUser": {"id": 7337, "name": "Alfred Grinding Room - Glazes", "locale": "en", "profile": {"username": "alfredgrindingroom", "title": null, "description": null, "countryId": null, "countryName": null, "url": "http://www.alfredgrindingroom.com/", "pinterest": null, "facebook": null, "instagram": null, "artaxis": null, "paypal": null}, "is_patron": 1, "material_image_count": 345, "createdAt": "2019-02-07T13:46:17", "updatedAt": "2022-04-14T18:56:35"}}}