{"data": {"id": 147403, "parentId": null, "children": [], "siblings": [], "revisionParentId": null, "revisionChildren": [], "name": "Water Blue", "otherNames": null, "formula": null, "description": "Glaze from Andrea Gill handout of glazes she compiled during her tenure at Alfred University.\n\nShiny, turquoise transparent; runs at 04", "isAnalysis": false, "isPrimitive": false, "isArchived": false, "default_locale": "en", "materialStateId": 1, "materialStateName": "Testing", "materialTypeId": 460, "baseTypeId": 460, "materialType": {"id": 460, "parentMaterialType": {"id": 100}}, "fromOrtonConeId": 20, "fromOrtonConeName": "04", "toOrtonConeId": 20, "toOrtonConeName": "04", "kilnSchedule": null, "waterAmount": null, "specificGravity": null, "thumbnailId": 44009, "ratingTotal": 0, "ratingNumber": 0, "ratingAverage": "0.00", "isPrivate": false, "createdByUserId": 7337, "createdAt": "2021-05-14T19:26:57", "createdAtHuman": "14 May 2021", "createdAtDiff": "3 years ago", "updatedAt": "2021-06-02T17:10:10", "updatedAtHuman": "02 Jun 2021", "updatedAtDiff": "3 years ago", "materialComponentTotalAmount": 106, "atmospheres": [], "materialComponents": [{"percentageAmount": "77.0000", "isAdditional": false, "material": {"id": 15167, "name": "Ferro Frit 3110", "isAnalysis": false, "isPrimitive": true, "isPrivate": false, "isArchived": true, "materialStateId": 2, "analysis": {"percentageAnalysis": {"SiO2": "69.7700", "Al2O3": "3.7000", "B2O3": "2.6400", "Na2O": "15.2400", "K2O": "2.3600", "CaO": "6.2900", "loi": "0.0000"}, "umfAnalysis": {"SiO2": "3.0309", "Al2O3": "0.0947", "B2O3": "0.0990", "Na2O": "0.6418", "K2O": "0.0654", "CaO": "0.2928", "SiO2Al2O3Ratio": "31.9989", "R2OTotal": "0.7072", "ROTotal": "0.2928"}, "xUmfAnalysis": {"SiO2": "3.0309", "Al2O3": "0.0947", "B2O3": "0.0990", "Na2O": "0.6418", "K2O": "0.0654", "CaO": "0.2928", "SiO2Al2O3Ratio": "31.9989", "SiO2xAl2O3Ratio": "31.9989", "xAl2O3": "0.0947", "R2OTotal": "0.7072", "ROTotal": "0.2928"}, "molPercentageAnalysis": {"SiO2": "71.7444", "Al2O3": "2.2421", "B2O3": "2.3429", "Na2O": "15.1924", "K2O": "1.5480", "CaO": "6.9303"}, "formulaAnalysis": {"SiO2": "3.0309", "Al2O3": "0.0947", "B2O3": "0.0990", "Na2O": "0.6418", "K2O": "0.0654", "CaO": "0.2928"}, "thermalExpansion": "10.3669", "weight": "261.0209", "oxideWeight": "261.0209"}, "thumbnail": {"id": 4938, "materialId": 15167, "title": "", "filename": "15167.5a6ba1d558762.jpg", "createdByUserId": 1, "createdAtDiff": "6 years ago"}}}, {"percentageAmount": "10.0000", "isAdditional": false, "material": {"id": 15400, "name": "Silica", "isAnalysis": false, "isPrimitive": true, "isPrivate": false, "isArchived": true, "materialStateId": 2, "analysis": {"percentageAnalysis": {"SiO2": "100.0000", "loi": "0.0000"}, "umfAnalysis": {"SiO2Al2O3Ratio": "0.0000", "R2OTotal": "0.0000", "ROTotal": "0.0000"}, "xUmfAnalysis": {"SiO2Al2O3Ratio": "0.0000", "SiO2xAl2O3Ratio": null, "xAl2O3": null, "R2OTotal": "0.0000", "ROTotal": "0.0000"}, "molPercentageAnalysis": {"SiO2": "100.0000"}, "formulaAnalysis": {"SiO2": "1.0000"}, "thermalExpansion": "3.5000", "weight": "60.1000", "oxideWeight": "60.0844"}, "thumbnail": {"id": 4900, "materialId": 15400, "title": "", "filename": "15400.5a6a6c135b2e7.jpg", "createdByUserId": 1, "createdAtDiff": "6 years ago"}}}, {"percentageAmount": "7.3000", "isAdditional": false, "material": {"id": 15137, "name": "EP Kaolin", "isAnalysis": false, "isPrimitive": true, "isPrivate": false, "isArchived": true, "materialStateId": 2, "analysis": {"percentageAnalysis": {"SiO2": "45.7270", "Al2O3": "37.3603", "Na2O": "0.0681", "K2O": "0.3451", "MgO": "0.1034", "CaO": "0.1849", "P2O5": "0.2601", "TiO2": "0.3804", "Fe2O3": "0.7607", "loi": "14.8100"}, "umfAnalysis": {"SiO2": "71.6261", "Al2O3": "34.4859", "Na2O": "0.1034", "K2O": "0.3448", "MgO": "0.2415", "CaO": "0.3103", "P2O5": "0.1725", "TiO2": "0.4483", "Fe2O3": "0.4483", "SiO2Al2O3Ratio": "2.0770", "R2OTotal": "0.4482", "ROTotal": "0.5518"}, "xUmfAnalysis": {"SiO2": "49.4540", "Al2O3": "23.8106", "Na2O": "0.0714", "K2O": "0.2381", "MgO": "0.1667", "CaO": "0.2143", "P2O5": "0.1191", "TiO2": "0.3095", "Fe2O3": "0.3096", "SiO2Al2O3Ratio": "2.0770", "SiO2xAl2O3Ratio": "2.0503", "xAl2O3": "24.1202", "R2OTotal": "0.3095", "ROTotal": "0.6905"}, "molPercentageAnalysis": {"SiO2": "66.2095", "Al2O3": "31.8779", "Na2O": "0.0956", "K2O": "0.3187", "MgO": "0.2232", "CaO": "0.2869", "P2O5": "0.1594", "TiO2": "0.4144", "Fe2O3": "0.4144"}, "formulaAnalysis": {"SiO2": "2.0770", "Al2O3": "1.0000", "Na2O": "0.0030", "K2O": "0.0100", "MgO": "0.0070", "CaO": "0.0090", "P2O5": "0.0050", "TiO2": "0.0130", "Fe2O3": "0.0130"}, "thermalExpansion": "5.0178", "weight": "0.0000", "oxideWeight": "232.4953"}, "thumbnail": {"id": 4952, "materialId": 15137, "title": "", "filename": "15137.5a6ba32627dcd.jpg", "createdByUserId": 1, "createdAtDiff": "6 years ago"}}}, {"percentageAmount": "6.0000", "isAdditional": false, "material": {"id": 15120, "name": "Copper Carbonate", "isAnalysis": false, "isPrimitive": true, "isPrivate": false, "isArchived": true, "materialStateId": 2, "analysis": {"percentageAnalysis": {"CuO": "64.3800", "loi": "35.6200"}, "umfAnalysis": {"SiO2Al2O3Ratio": "0.0000", "R2OTotal": "0.0000", "ROTotal": "0.0000"}, "xUmfAnalysis": {"CuO": "1.0000", "SiO2Al2O3Ratio": "0.0000", "SiO2xAl2O3Ratio": null, "xAl2O3": null, "R2OTotal": "1.0000", "ROTotal": "0.0000"}, "molPercentageAnalysis": {"CuO": "100.0000"}, "formulaAnalysis": {"CuO": "1.0000"}, "thermalExpansion": "0.0000", "weight": "79.5400", "oxideWeight": "79.5454"}, "thumbnail": {"id": 16812, "materialId": 15120, "title": null, "filename": "15120.5de7cc4e7969f.jpg", "createdByUserId": 7, "createdAtDiff": "4 years ago"}}}, {"percentageAmount": "5.7000", "isAdditional": false, "material": {"id": 15252, "name": "Gerstley Borate", "isAnalysis": false, "isPrimitive": true, "isPrivate": false, "isArchived": true, "materialStateId": 2, "analysis": {"percentageAnalysis": {"SiO2": "14.7990", "Al2O3": "1.0023", "B2O3": "26.7994", "Na2O": "4.0006", "K2O": "0.4016", "MgO": "3.4991", "CaO": "19.3978", "P2O5": "0.0997", "TiO2": "0.1001", "Fe2O3": "0.4004", "loi": "29.5000"}, "umfAnalysis": {"SiO2": "0.4911", "Al2O3": "0.0196", "B2O3": "0.7675", "Na2O": "0.1287", "K2O": "0.0085", "MgO": "0.1731", "CaO": "0.6897", "P2O5": "0.0014", "TiO2": "0.0025", "Fe2O3": "0.0050", "SiO2Al2O3Ratio": "25.0555", "R2OTotal": "0.1372", "ROTotal": "0.8628"}, "xUmfAnalysis": {"SiO2": "0.4886", "Al2O3": "0.0195", "B2O3": "0.7637", "Na2O": "0.1281", "K2O": "0.0085", "MgO": "0.1722", "CaO": "0.6863", "P2O5": "0.0014", "TiO2": "0.0025", "Fe2O3": "0.0050", "SiO2Al2O3Ratio": "25.0555", "SiO2xAl2O3Ratio": "22.2222", "xAl2O3": "0.0220", "R2OTotal": "0.1365", "ROTotal": "0.8635"}, "molPercentageAnalysis": {"SiO2": "21.4721", "Al2O3": "0.8570", "B2O3": "33.5582", "Na2O": "5.6272", "K2O": "0.3717", "MgO": "7.5686", "CaO": "30.1561", "P2O5": "0.0612", "TiO2": "0.1093", "Fe2O3": "0.2186"}, "formulaAnalysis": {"SiO2": "0.4911", "Al2O3": "0.0196", "B2O3": "0.7675", "Na2O": "0.1287", "K2O": "0.0085", "MgO": "0.1731", "CaO": "0.6897", "P2O5": "0.0014", "TiO2": "0.0025", "Fe2O3": "0.0050"}, "thermalExpansion": "8.6800", "weight": "140.6000", "oxideWeight": "140.5683"}, "thumbnail": {"id": 4954, "materialId": 15252, "title": "", "filename": "15252.5a6ba332a34ef.jpg", "createdByUserId": 1, "createdAtDiff": "6 years ago"}}}], "analysis": {"percentageAnalysis": {"SiO2": "64.0609", "Al2O3": "5.3146", "B2O3": "3.3588", "Na2O": "11.2904", "K2O": "1.7597", "MgO": "0.1953", "CaO": "5.6250", "P2O5": "0.0233", "TiO2": "0.0316", "Fe2O3": "0.0739", "CuO": "3.6442", "loi": "4.6225"}, "umfAnalysis": {"SiO2": "3.4842", "Al2O3": "0.1703", "B2O3": "0.1577", "Na2O": "0.5953", "K2O": "0.0611", "MgO": "0.0158", "CaO": "0.3278", "P2O5": "0.0005", "TiO2": "0.0013", "Fe2O3": "0.0015", "CuO": "0.1497", "SiO2Al2O3Ratio": "20.4547", "R2OTotal": "0.6564", "ROTotal": "0.3436"}, "xUmfAnalysis": {"SiO2": "3.0265", "Al2O3": "0.1480", "B2O3": "0.1370", "Na2O": "0.5171", "K2O": "0.0530", "MgO": "0.0138", "CaO": "0.2847", "P2O5": "0.0005", "TiO2": "0.0011", "Fe2O3": "0.0013", "CuO": "0.1300", "SiO2Al2O3Ratio": "20.4547", "SiO2xAl2O3Ratio": "20.3007", "xAl2O3": "0.1491", "R2OTotal": "0.7002", "ROTotal": "0.2998"}, "molPercentageAnalysis": {"SiO2": "70.1717", "Al2O3": "3.4306", "B2O3": "3.1753", "Na2O": "11.9895", "K2O": "1.2295", "MgO": "0.3189", "CaO": "6.6019", "P2O5": "0.0108", "TiO2": "0.0260", "Fe2O3": "0.0305", "CuO": "3.0152"}, "formulaAnalysis": {"SiO2": "1.0662", "Al2O3": "0.0521", "B2O3": "0.0482", "Na2O": "0.1822", "K2O": "0.0187", "MgO": "0.0048", "CaO": "0.1003", "P2O5": "0.0002", "TiO2": "0.0004", "Fe2O3": "0.0005", "CuO": "0.0458"}, "thermalExpansion": "8.8955", "weight": null, "oxideWeight": null}, "images": [{"id": 44009, "materialId": 147403, "title": "Water Blue", "description": null, "ortonConeId": 20, "atmosphereId": 1, "is_color_searchable": 1, "dominantRgbR": 15, "dominantRgbG": 17, "dominantRgbB": 13, "dominantHexColor": "0f110d", "secondaryRgbR": 106, "secondaryRgbG": 108, "secondaryRgbB": 110, "secondaryHexColor": "6a6c6e", "filename": "147403.60b7bb4c68261.jpg", "isPrivate": false, "createdByUser": {"id": 7337, "name": "Alfred Grinding Room - Glazes", "locale": "en", "profile": {"username": "alfredgrindingroom", "title": null, "description": null, "countryId": null, "countryName": null, "url": "http://www.alfredgrindingroom.com/", "pinterest": null, "facebook": null, "instagram": null, "artaxis": null, "paypal": null}, "is_patron": 1, "material_image_count": 345, "createdAt": "2019-02-07T13:46:17", "updatedAt": "2022-04-14T18:56:35"}, "createdByUserId": 7337, "createdAt": "2021-06-02T17:09:33", "createdAtHuman": "02 Jun 2021", "createdAtDiff": "3 years ago", "updatedAt": "2021-06-02T17:09:33", "updatedAtHuman": "02 Jun 2021", "updatedAtDiff": "3 years ago"}, {"id": 44010, "materialId": 147403, "title": "Water Blue", "description": null, "ortonConeId": 17, "atmosphereId": 1, "is_color_searchable": 1, "dominantRgbR": 19, "dominantRgbG": 20, "dominantRgbB": 14, "dominantHexColor": "13140e", "secondaryRgbR": 114, "secondaryRgbG": 95, "secondaryRgbB": 87, "secondaryHexColor": "725f57", "filename": "147403.60b7bb666aa48.jpg", "isPrivate": false, "createdByUser": {"id": 7337, "name": "Alfred Grinding Room - Glazes", "locale": "en", "profile": {"username": "alfredgrindingroom", "title": null, "description": null, "countryId": null, "countryName": null, "url": "http://www.alfredgrindingroom.com/", "pinterest": null, "facebook": null, "instagram": null, "artaxis": null, "paypal": null}, "is_patron": 1, "material_image_count": 345, "createdAt": "2019-02-07T13:46:17", "updatedAt": "2022-04-14T18:56:35"}, "createdByUserId": 7337, "createdAt": "2021-06-02T17:09:59", "createdAtHuman": "02 Jun 2021", "createdAtDiff": "3 years ago", "updatedAt": "2021-06-02T17:09:59", "updatedAtHuman": "02 Jun 2021", "updatedAtDiff": "3 years ago"}], "thumbnail": {"id": 44009, "materialId": 147403, "title": "Water Blue", "description": null, "ortonConeId": 20, "atmosphereId": 1, "is_color_searchable": 1, "dominantRgbR": 15, "dominantRgbG": 17, "dominantRgbB": 13, "dominantHexColor": "0f110d", "secondaryRgbR": 106, "secondaryRgbG": 108, "secondaryRgbB": 110, "secondaryHexColor": "6a6c6e", "filename": "147403.60b7bb4c68261.jpg", "isPrivate": false, "createdByUser": {"id": 7337, "name": "Alfred Grinding Room - Glazes", "locale": "en", "profile": {"username": "alfredgrindingroom", "title": null, "description": null, "countryId": null, "countryName": null, "url": "http://www.alfredgrindingroom.com/", "pinterest": null, "facebook": null, "instagram": null, "artaxis": null, "paypal": null}, "is_patron": 1, "material_image_count": 345, "createdAt": "2019-02-07T13:46:17", "updatedAt": "2022-04-14T18:56:35"}, "createdByUserId": 7337, "createdAt": "2021-06-02T17:09:33", "createdAtHuman": "02 Jun 2021", "createdAtDiff": "3 years ago", "updatedAt": "2021-06-02T17:09:33", "updatedAtHuman": "02 Jun 2021", "updatedAtDiff": "3 years ago"}, "reviews": [], "comments": [], "translations": [{"id": 247141, "name": "Water Blue", "other_names": null, "description": "Glaze from Andrea Gill handout of glazes she compiled during her tenure at Alfred University.\n\nShiny, turquoise transparent; runs at 04", "locale": "en"}], "createdByUser": {"id": 7337, "name": "Alfred Grinding Room - Glazes", "locale": "en", "profile": {"username": "alfredgrindingroom", "title": null, "description": null, "countryId": null, "countryName": null, "url": "http://www.alfredgrindingroom.com/", "pinterest": null, "facebook": null, "instagram": null, "artaxis": null, "paypal": null}, "is_patron": 1, "material_image_count": 345, "createdAt": "2019-02-07T13:46:17", "updatedAt": "2022-04-14T18:56:35"}}}