{"data": {"id": 147404, "parentId": null, "children": [], "siblings": [], "revisionParentId": null, "revisionChildren": [], "name": "New Gill Blue", "otherNames": null, "formula": null, "description": "Glaze from Andrea Gill handout of glazes she compiled during her tenure at Alfred University.", "isAnalysis": false, "isPrimitive": false, "isArchived": false, "default_locale": "en", "materialStateId": 1, "materialStateName": "Testing", "materialTypeId": 460, "baseTypeId": 460, "materialType": {"id": 460, "parentMaterialType": {"id": 100}}, "fromOrtonConeId": 20, "fromOrtonConeName": "04", "toOrtonConeId": 20, "toOrtonConeName": "04", "kilnSchedule": null, "waterAmount": null, "specificGravity": null, "thumbnailId": 43884, "ratingTotal": 0, "ratingNumber": 0, "ratingAverage": "0.00", "isPrivate": false, "createdByUserId": 7337, "createdAt": "2021-05-14T19:32:01", "createdAtHuman": "14 May 2021", "createdAtDiff": "3 years ago", "updatedAt": "2021-06-01T13:34:50", "updatedAtHuman": "01 Jun 2021", "updatedAtDiff": "3 years ago", "materialComponentTotalAmount": 102.99999999999999, "atmospheres": [], "materialComponents": [{"percentageAmount": "40.1800", "isAdditional": false, "material": {"id": 15168, "name": "Ferro Frit 3124", "isAnalysis": false, "isPrimitive": true, "isPrivate": false, "isArchived": true, "materialStateId": 2, "analysis": {"percentageAnalysis": {"SiO2": "55.3013", "Al2O3": "9.8977", "B2O3": "13.7671", "Na2O": "6.2839", "K2O": "0.6773", "CaO": "14.0728", "loi": "0.0000"}, "umfAnalysis": {"SiO2": "2.5599", "Al2O3": "0.2700", "B2O3": "0.5500", "Na2O": "0.2820", "K2O": "0.0200", "CaO": "0.6980", "SiO2Al2O3Ratio": "9.4813", "R2OTotal": "0.3020", "ROTotal": "0.6980"}, "xUmfAnalysis": {"SiO2": "2.5599", "Al2O3": "0.2700", "B2O3": "0.5500", "Na2O": "0.2820", "K2O": "0.0200", "CaO": "0.6980", "SiO2Al2O3Ratio": "9.4813", "SiO2xAl2O3Ratio": "9.4813", "xAl2O3": "0.2700", "R2OTotal": "0.3020", "ROTotal": "0.6980"}, "molPercentageAnalysis": {"SiO2": "58.4469", "Al2O3": "6.1644", "B2O3": "12.5574", "Na2O": "6.4384", "K2O": "0.4566", "CaO": "15.9363"}, "formulaAnalysis": {"SiO2": "2.5599", "Al2O3": "0.2700", "B2O3": "0.5500", "Na2O": "0.2820", "K2O": "0.0200", "CaO": "0.6980"}, "thermalExpansion": "7.7247", "weight": "279.6500", "oxideWeight": "278.1418"}, "thumbnail": {"id": 4939, "materialId": 15168, "title": "", "filename": "15168.5a6ba1d960dfd.jpg", "createdByUserId": 1, "createdAtDiff": "6 years ago"}}}, {"percentageAmount": "28.6200", "isAdditional": false, "material": {"id": 15252, "name": "Gerstley Borate", "isAnalysis": false, "isPrimitive": true, "isPrivate": false, "isArchived": true, "materialStateId": 2, "analysis": {"percentageAnalysis": {"SiO2": "14.7990", "Al2O3": "1.0023", "B2O3": "26.7994", "Na2O": "4.0006", "K2O": "0.4016", "MgO": "3.4991", "CaO": "19.3978", "P2O5": "0.0997", "TiO2": "0.1001", "Fe2O3": "0.4004", "loi": "29.5000"}, "umfAnalysis": {"SiO2": "0.4911", "Al2O3": "0.0196", "B2O3": "0.7675", "Na2O": "0.1287", "K2O": "0.0085", "MgO": "0.1731", "CaO": "0.6897", "P2O5": "0.0014", "TiO2": "0.0025", "Fe2O3": "0.0050", "SiO2Al2O3Ratio": "25.0555", "R2OTotal": "0.1372", "ROTotal": "0.8628"}, "xUmfAnalysis": {"SiO2": "0.4886", "Al2O3": "0.0195", "B2O3": "0.7637", "Na2O": "0.1281", "K2O": "0.0085", "MgO": "0.1722", "CaO": "0.6863", "P2O5": "0.0014", "TiO2": "0.0025", "Fe2O3": "0.0050", "SiO2Al2O3Ratio": "25.0555", "SiO2xAl2O3Ratio": "22.2222", "xAl2O3": "0.0220", "R2OTotal": "0.1365", "ROTotal": "0.8635"}, "molPercentageAnalysis": {"SiO2": "21.4721", "Al2O3": "0.8570", "B2O3": "33.5582", "Na2O": "5.6272", "K2O": "0.3717", "MgO": "7.5686", "CaO": "30.1561", "P2O5": "0.0612", "TiO2": "0.1093", "Fe2O3": "0.2186"}, "formulaAnalysis": {"SiO2": "0.4911", "Al2O3": "0.0196", "B2O3": "0.7675", "Na2O": "0.1287", "K2O": "0.0085", "MgO": "0.1731", "CaO": "0.6897", "P2O5": "0.0014", "TiO2": "0.0025", "Fe2O3": "0.0050"}, "thermalExpansion": "8.6800", "weight": "140.6000", "oxideWeight": "140.5683"}, "thumbnail": {"id": 4954, "materialId": 15252, "title": "", "filename": "15252.5a6ba332a34ef.jpg", "createdByUserId": 1, "createdAtDiff": "6 years ago"}}}, {"percentageAmount": "19.8000", "isAdditional": false, "material": {"id": 15400, "name": "Silica", "isAnalysis": false, "isPrimitive": true, "isPrivate": false, "isArchived": true, "materialStateId": 2, "analysis": {"percentageAnalysis": {"SiO2": "100.0000", "loi": "0.0000"}, "umfAnalysis": {"SiO2Al2O3Ratio": "0.0000", "R2OTotal": "0.0000", "ROTotal": "0.0000"}, "xUmfAnalysis": {"SiO2Al2O3Ratio": "0.0000", "SiO2xAl2O3Ratio": null, "xAl2O3": null, "R2OTotal": "0.0000", "ROTotal": "0.0000"}, "molPercentageAnalysis": {"SiO2": "100.0000"}, "formulaAnalysis": {"SiO2": "1.0000"}, "thermalExpansion": "3.5000", "weight": "60.1000", "oxideWeight": "60.0844"}, "thumbnail": {"id": 4900, "materialId": 15400, "title": "", "filename": "15400.5a6a6c135b2e7.jpg", "createdByUserId": 1, "createdAtDiff": "6 years ago"}}}, {"percentageAmount": "5.7400", "isAdditional": false, "material": {"id": 15470, "name": "Minspar 200", "isAnalysis": false, "isPrimitive": true, "isPrivate": false, "isArchived": true, "materialStateId": 2, "analysis": {"percentageAnalysis": {"SiO2": "68.9053", "Al2O3": "18.5819", "Na2O": "6.5292", "K2O": "4.1181", "CaO": "1.5065", "Fe2O3": "0.0590", "loi": "0.3000"}, "umfAnalysis": {"SiO2": "6.5185", "Al2O3": "1.0359", "Na2O": "0.5988", "K2O": "0.2485", "CaO": "0.1527", "Fe2O3": "0.0021", "SiO2Al2O3Ratio": "6.2926", "R2OTotal": "0.8473", "ROTotal": "0.1527"}, "xUmfAnalysis": {"SiO2": "6.5049", "Al2O3": "1.0337", "Na2O": "0.5975", "K2O": "0.2480", "CaO": "0.1524", "Fe2O3": "0.0021", "SiO2Al2O3Ratio": "6.2926", "SiO2xAl2O3Ratio": "6.2926", "xAl2O3": "1.0337", "R2OTotal": "0.8455", "ROTotal": "0.1545"}, "molPercentageAnalysis": {"SiO2": "76.1819", "Al2O3": "12.1066", "Na2O": "6.9981", "K2O": "2.9042", "CaO": "1.7846", "Fe2O3": "0.0245"}, "formulaAnalysis": {"SiO2": "6.5185", "Al2O3": "1.0359", "Na2O": "0.5988", "K2O": "0.2485", "CaO": "0.1527", "Fe2O3": "0.0021"}, "thermalExpansion": "7.7258", "weight": "0.0000", "oxideWeight": "566.7070"}, "thumbnail": {"id": 16822, "materialId": 15470, "title": null, "filename": "15470.5de7d0a880076.jpg", "createdByUserId": 7, "createdAtDiff": "4 years ago"}}}, {"percentageAmount": "5.6600", "isAdditional": false, "material": {"id": 15137, "name": "EP Kaolin", "isAnalysis": false, "isPrimitive": true, "isPrivate": false, "isArchived": true, "materialStateId": 2, "analysis": {"percentageAnalysis": {"SiO2": "45.7270", "Al2O3": "37.3603", "Na2O": "0.0681", "K2O": "0.3451", "MgO": "0.1034", "CaO": "0.1849", "P2O5": "0.2601", "TiO2": "0.3804", "Fe2O3": "0.7607", "loi": "14.8100"}, "umfAnalysis": {"SiO2": "71.6261", "Al2O3": "34.4859", "Na2O": "0.1034", "K2O": "0.3448", "MgO": "0.2415", "CaO": "0.3103", "P2O5": "0.1725", "TiO2": "0.4483", "Fe2O3": "0.4483", "SiO2Al2O3Ratio": "2.0770", "R2OTotal": "0.4482", "ROTotal": "0.5518"}, "xUmfAnalysis": {"SiO2": "49.4540", "Al2O3": "23.8106", "Na2O": "0.0714", "K2O": "0.2381", "MgO": "0.1667", "CaO": "0.2143", "P2O5": "0.1191", "TiO2": "0.3095", "Fe2O3": "0.3096", "SiO2Al2O3Ratio": "2.0770", "SiO2xAl2O3Ratio": "2.0503", "xAl2O3": "24.1202", "R2OTotal": "0.3095", "ROTotal": "0.6905"}, "molPercentageAnalysis": {"SiO2": "66.2095", "Al2O3": "31.8779", "Na2O": "0.0956", "K2O": "0.3187", "MgO": "0.2232", "CaO": "0.2869", "P2O5": "0.1594", "TiO2": "0.4144", "Fe2O3": "0.4144"}, "formulaAnalysis": {"SiO2": "2.0770", "Al2O3": "1.0000", "Na2O": "0.0030", "K2O": "0.0100", "MgO": "0.0070", "CaO": "0.0090", "P2O5": "0.0050", "TiO2": "0.0130", "Fe2O3": "0.0130"}, "thermalExpansion": "5.0178", "weight": "0.0000", "oxideWeight": "232.4953"}, "thumbnail": {"id": 4952, "materialId": 15137, "title": "", "filename": "15137.5a6ba32627dcd.jpg", "createdByUserId": 1, "createdAtDiff": "6 years ago"}}}, {"percentageAmount": "3.0000", "isAdditional": false, "material": {"id": 15120, "name": "Copper Carbonate", "isAnalysis": false, "isPrimitive": true, "isPrivate": false, "isArchived": true, "materialStateId": 2, "analysis": {"percentageAnalysis": {"CuO": "64.3800", "loi": "35.6200"}, "umfAnalysis": {"SiO2Al2O3Ratio": "0.0000", "R2OTotal": "0.0000", "ROTotal": "0.0000"}, "xUmfAnalysis": {"CuO": "1.0000", "SiO2Al2O3Ratio": "0.0000", "SiO2xAl2O3Ratio": null, "xAl2O3": null, "R2OTotal": "1.0000", "ROTotal": "0.0000"}, "molPercentageAnalysis": {"CuO": "100.0000"}, "formulaAnalysis": {"CuO": "1.0000"}, "thermalExpansion": "0.0000", "weight": "79.5400", "oxideWeight": "79.5454"}, "thumbnail": {"id": 16812, "materialId": 15120, "title": null, "filename": "15120.5de7cc4e7969f.jpg", "createdByUserId": 7, "createdAtDiff": "4 years ago"}}}], "analysis": {"percentageAnalysis": {"SiO2": "51.2610", "Al2O3": "7.2281", "B2O3": "12.8171", "Na2O": "3.9306", "K2O": "0.6243", "MgO": "0.9780", "CaO": "10.9738", "P2O5": "0.0420", "TiO2": "0.0487", "Fe2O3": "0.1563", "CuO": "1.8751", "loi": "10.0650"}, "umfAnalysis": {"SiO2": "2.9419", "Al2O3": "0.2445", "B2O3": "0.6348", "Na2O": "0.2187", "K2O": "0.0229", "MgO": "0.0837", "CaO": "0.6748", "P2O5": "0.0010", "TiO2": "0.0021", "Fe2O3": "0.0034", "CuO": "0.0813", "SiO2Al2O3Ratio": "12.0346", "R2OTotal": "0.2415", "ROTotal": "0.7585"}, "xUmfAnalysis": {"SiO2": "2.7122", "Al2O3": "0.2254", "B2O3": "0.5853", "Na2O": "0.2016", "K2O": "0.0211", "MgO": "0.0771", "CaO": "0.6221", "P2O5": "0.0009", "TiO2": "0.0019", "Fe2O3": "0.0031", "CuO": "0.0749", "SiO2Al2O3Ratio": "12.0346", "SiO2xAl2O3Ratio": "11.9319", "xAl2O3": "0.2273", "R2OTotal": "0.2976", "ROTotal": "0.7024"}, "molPercentageAnalysis": {"SiO2": "59.9288", "Al2O3": "4.9797", "B2O3": "12.9321", "Na2O": "4.4548", "K2O": "0.4655", "MgO": "1.7045", "CaO": "13.7464", "P2O5": "0.0208", "TiO2": "0.0428", "Fe2O3": "0.0688", "CuO": "1.6559"}, "formulaAnalysis": {"SiO2": "0.8531", "Al2O3": "0.0709", "B2O3": "0.1841", "Na2O": "0.0634", "K2O": "0.0066", "MgO": "0.0243", "CaO": "0.1957", "P2O5": "0.0003", "TiO2": "0.0006", "Fe2O3": "0.0010", "CuO": "0.0236"}, "thermalExpansion": "6.7279", "weight": null, "oxideWeight": null}, "images": [{"id": 43884, "materialId": 147404, "title": "New Gill Blue", "description": null, "ortonConeId": 20, "atmosphereId": 1, "is_color_searchable": 1, "dominantRgbR": 34, "dominantRgbG": 47, "dominantRgbB": 47, "dominantHexColor": "222f2f", "secondaryRgbR": 74, "secondaryRgbG": 121, "secondaryRgbB": 124, "secondaryHexColor": "4a797c", "filename": "147404.60b63689a08f1.jpg", "isPrivate": false, "createdByUser": {"id": 7337, "name": "Alfred Grinding Room - Glazes", "locale": "en", "profile": {"username": "alfredgrindingroom", "title": null, "description": null, "countryId": null, "countryName": null, "url": "http://www.alfredgrindingroom.com/", "pinterest": null, "facebook": null, "instagram": null, "artaxis": null, "paypal": null}, "is_patron": 1, "material_image_count": 345, "createdAt": "2019-02-07T13:46:17", "updatedAt": "2022-04-14T18:56:35"}, "createdByUserId": 7337, "createdAt": "2021-06-01T13:30:51", "createdAtHuman": "01 Jun 2021", "createdAtDiff": "3 years ago", "updatedAt": "2021-06-01T13:30:51", "updatedAtHuman": "01 Jun 2021", "updatedAtDiff": "3 years ago"}, {"id": 43885, "materialId": 147404, "title": "New Gill Blue", "description": null, "ortonConeId": 17, "atmosphereId": 1, "is_color_searchable": 1, "dominantRgbR": 32, "dominantRgbG": 53, "dominantRgbB": 55, "dominantHexColor": "203537", "secondaryRgbR": 92, "secondaryRgbG": 138, "secondaryRgbB": 146, "secondaryHexColor": "5c8a92", "filename": "147404.60b636aed56b5.jpg", "isPrivate": false, "createdByUser": {"id": 7337, "name": "Alfred Grinding Room - Glazes", "locale": "en", "profile": {"username": "alfredgrindingroom", "title": null, "description": null, "countryId": null, "countryName": null, "url": "http://www.alfredgrindingroom.com/", "pinterest": null, "facebook": null, "instagram": null, "artaxis": null, "paypal": null}, "is_patron": 1, "material_image_count": 345, "createdAt": "2019-02-07T13:46:17", "updatedAt": "2022-04-14T18:56:35"}, "createdByUserId": 7337, "createdAt": "2021-06-01T13:31:28", "createdAtHuman": "01 Jun 2021", "createdAtDiff": "3 years ago", "updatedAt": "2021-06-01T13:31:28", "updatedAtHuman": "01 Jun 2021", "updatedAtDiff": "3 years ago"}], "thumbnail": {"id": 43884, "materialId": 147404, "title": "New Gill Blue", "description": null, "ortonConeId": 20, "atmosphereId": 1, "is_color_searchable": 1, "dominantRgbR": 34, "dominantRgbG": 47, "dominantRgbB": 47, "dominantHexColor": "222f2f", "secondaryRgbR": 74, "secondaryRgbG": 121, "secondaryRgbB": 124, "secondaryHexColor": "4a797c", "filename": "147404.60b63689a08f1.jpg", "isPrivate": false, "createdByUser": {"id": 7337, "name": "Alfred Grinding Room - Glazes", "locale": "en", "profile": {"username": "alfredgrindingroom", "title": null, "description": null, "countryId": null, "countryName": null, "url": "http://www.alfredgrindingroom.com/", "pinterest": null, "facebook": null, "instagram": null, "artaxis": null, "paypal": null}, "is_patron": 1, "material_image_count": 345, "createdAt": "2019-02-07T13:46:17", "updatedAt": "2022-04-14T18:56:35"}, "createdByUserId": 7337, "createdAt": "2021-06-01T13:30:51", "createdAtHuman": "01 Jun 2021", "createdAtDiff": "3 years ago", "updatedAt": "2021-06-01T13:30:51", "updatedAtHuman": "01 Jun 2021", "updatedAtDiff": "3 years ago"}, "reviews": [], "comments": [], "translations": [{"id": 246758, "name": "New Gill Blue", "other_names": null, "description": "Glaze from Andrea Gill handout of glazes she compiled during her tenure at Alfred University.", "locale": "en"}], "createdByUser": {"id": 7337, "name": "Alfred Grinding Room - Glazes", "locale": "en", "profile": {"username": "alfredgrindingroom", "title": null, "description": null, "countryId": null, "countryName": null, "url": "http://www.alfredgrindingroom.com/", "pinterest": null, "facebook": null, "instagram": null, "artaxis": null, "paypal": null}, "is_patron": 1, "material_image_count": 345, "createdAt": "2019-02-07T13:46:17", "updatedAt": "2022-04-14T18:56:35"}}}