{"data": {"id": 147985, "parentId": null, "children": [], "siblings": [], "revisionParentId": null, "revisionChildren": [], "name": "Burkett SDSU White Crawl Glaze", "otherNames": null, "formula": null, "description": "Glaze from Andrea Gill handout of glazes she compiled during her tenure at Alfred University.\n\nDo not add CMC gum -- it will prevent crawling. \nMixing tips: weigh, mix and screen all ingredients EXCEPT the Borax; add borax last (wet it first with hot water)\nGlaze is designed to break into a checked crawl; can apply over other fired glazed", "isAnalysis": false, "isPrimitive": false, "isArchived": false, "default_locale": "en", "materialStateId": 1, "materialStateName": "Testing", "materialTypeId": 460, "baseTypeId": 460, "materialType": {"id": 460, "parentMaterialType": {"id": 100}}, "fromOrtonConeId": 20, "fromOrtonConeName": "04", "toOrtonConeId": 20, "toOrtonConeName": "04", "kilnSchedule": null, "waterAmount": null, "specificGravity": null, "thumbnailId": 44011, "ratingTotal": 0, "ratingNumber": 0, "ratingAverage": "0.00", "isPrivate": false, "createdByUserId": 7337, "createdAt": "2021-05-17T16:33:58", "createdAtHuman": "17 May 2021", "createdAtDiff": "3 years ago", "updatedAt": "2021-06-02T17:11:31", "updatedAtHuman": "02 Jun 2021", "updatedAtDiff": "3 years ago", "materialComponentTotalAmount": 105.4, "atmospheres": [], "materialComponents": [{"percentageAmount": "46.5000", "isAdditional": false, "material": {"id": 15252, "name": "Gerstley Borate", "isAnalysis": false, "isPrimitive": true, "isPrivate": false, "isArchived": true, "materialStateId": 2, "analysis": {"percentageAnalysis": {"SiO2": "14.7990", "Al2O3": "1.0023", "B2O3": "26.7994", "Na2O": "4.0006", "K2O": "0.4016", "MgO": "3.4991", "CaO": "19.3978", "P2O5": "0.0997", "TiO2": "0.1001", "Fe2O3": "0.4004", "loi": "29.5000"}, "umfAnalysis": {"SiO2": "0.4911", "Al2O3": "0.0196", "B2O3": "0.7675", "Na2O": "0.1287", "K2O": "0.0085", "MgO": "0.1731", "CaO": "0.6897", "P2O5": "0.0014", "TiO2": "0.0025", "Fe2O3": "0.0050", "SiO2Al2O3Ratio": "25.0555", "R2OTotal": "0.1372", "ROTotal": "0.8628"}, "xUmfAnalysis": {"SiO2": "0.4886", "Al2O3": "0.0195", "B2O3": "0.7637", "Na2O": "0.1281", "K2O": "0.0085", "MgO": "0.1722", "CaO": "0.6863", "P2O5": "0.0014", "TiO2": "0.0025", "Fe2O3": "0.0050", "SiO2Al2O3Ratio": "25.0555", "SiO2xAl2O3Ratio": "22.2222", "xAl2O3": "0.0220", "R2OTotal": "0.1365", "ROTotal": "0.8635"}, "molPercentageAnalysis": {"SiO2": "21.4721", "Al2O3": "0.8570", "B2O3": "33.5582", "Na2O": "5.6272", "K2O": "0.3717", "MgO": "7.5686", "CaO": "30.1561", "P2O5": "0.0612", "TiO2": "0.1093", "Fe2O3": "0.2186"}, "formulaAnalysis": {"SiO2": "0.4911", "Al2O3": "0.0196", "B2O3": "0.7675", "Na2O": "0.1287", "K2O": "0.0085", "MgO": "0.1731", "CaO": "0.6897", "P2O5": "0.0014", "TiO2": "0.0025", "Fe2O3": "0.0050"}, "thermalExpansion": "8.6800", "weight": "140.6000", "oxideWeight": "140.5683"}, "thumbnail": {"id": 4954, "materialId": 15252, "title": "", "filename": "15252.5a6ba332a34ef.jpg", "createdByUserId": 1, "createdAtDiff": "6 years ago"}}}, {"percentageAmount": "31.0000", "isAdditional": false, "material": {"id": 15331, "name": "Magnesium carbonate", "isAnalysis": false, "isPrimitive": true, "isPrivate": false, "isArchived": true, "materialStateId": 2, "analysis": {"percentageAnalysis": {"MgO": "47.8000", "loi": "52.2000"}, "umfAnalysis": {"MgO": "1.0000", "SiO2Al2O3Ratio": "0.0000", "R2OTotal": "0.0000", "ROTotal": "1.0000"}, "xUmfAnalysis": {"MgO": "1.0000", "SiO2Al2O3Ratio": "0.0000", "SiO2xAl2O3Ratio": null, "xAl2O3": null, "R2OTotal": "0.0000", "ROTotal": "1.0000"}, "molPercentageAnalysis": {"MgO": "100.0000"}, "formulaAnalysis": {"MgO": "1.0000"}, "thermalExpansion": "2.6000", "weight": "0.0000", "oxideWeight": "0.0000"}, "thumbnail": {"id": 16819, "materialId": 15331, "title": null, "filename": "15331.5de7d017c3ec1.jpg", "createdByUserId": 7, "createdAtDiff": "4 years ago"}}}, {"percentageAmount": "18.6000", "isAdditional": false, "material": {"id": 15137, "name": "EP Kaolin", "isAnalysis": false, "isPrimitive": true, "isPrivate": false, "isArchived": true, "materialStateId": 2, "analysis": {"percentageAnalysis": {"SiO2": "45.7270", "Al2O3": "37.3603", "Na2O": "0.0681", "K2O": "0.3451", "MgO": "0.1034", "CaO": "0.1849", "P2O5": "0.2601", "TiO2": "0.3804", "Fe2O3": "0.7607", "loi": "14.8100"}, "umfAnalysis": {"SiO2": "71.6261", "Al2O3": "34.4859", "Na2O": "0.1034", "K2O": "0.3448", "MgO": "0.2415", "CaO": "0.3103", "P2O5": "0.1725", "TiO2": "0.4483", "Fe2O3": "0.4483", "SiO2Al2O3Ratio": "2.0770", "R2OTotal": "0.4482", "ROTotal": "0.5518"}, "xUmfAnalysis": {"SiO2": "49.4540", "Al2O3": "23.8106", "Na2O": "0.0714", "K2O": "0.2381", "MgO": "0.1667", "CaO": "0.2143", "P2O5": "0.1191", "TiO2": "0.3095", "Fe2O3": "0.3096", "SiO2Al2O3Ratio": "2.0770", "SiO2xAl2O3Ratio": "2.0503", "xAl2O3": "24.1202", "R2OTotal": "0.3095", "ROTotal": "0.6905"}, "molPercentageAnalysis": {"SiO2": "66.2095", "Al2O3": "31.8779", "Na2O": "0.0956", "K2O": "0.3187", "MgO": "0.2232", "CaO": "0.2869", "P2O5": "0.1594", "TiO2": "0.4144", "Fe2O3": "0.4144"}, "formulaAnalysis": {"SiO2": "2.0770", "Al2O3": "1.0000", "Na2O": "0.0030", "K2O": "0.0100", "MgO": "0.0070", "CaO": "0.0090", "P2O5": "0.0050", "TiO2": "0.0130", "Fe2O3": "0.0130"}, "thermalExpansion": "5.0178", "weight": "0.0000", "oxideWeight": "232.4953"}, "thumbnail": {"id": 4952, "materialId": 15137, "title": "", "filename": "15137.5a6ba32627dcd.jpg", "createdByUserId": 1, "createdAtDiff": "6 years ago"}}}, {"percentageAmount": "5.4000", "isAdditional": false, "material": {"id": 15469, "name": "Zircopax", "isAnalysis": false, "isPrimitive": true, "isPrivate": false, "isArchived": true, "materialStateId": 2, "analysis": {"percentageAnalysis": {"SiO2": "32.7779", "ZrO2": "67.2221", "loi": "0.0000"}, "umfAnalysis": {"SiO2Al2O3Ratio": "0.0000", "R2OTotal": "0.0000", "ROTotal": "0.0000"}, "xUmfAnalysis": {"SiO2Al2O3Ratio": "0.0000", "SiO2xAl2O3Ratio": null, "xAl2O3": null, "R2OTotal": "0.0000", "ROTotal": "0.0000"}, "molPercentageAnalysis": {"SiO2": "49.9997", "ZrO2": "50.0003"}, "formulaAnalysis": {"SiO2": "1.0000", "ZrO2": "1.0000"}, "thermalExpansion": "2.4917", "weight": "183.3350", "oxideWeight": "183.3075"}, "thumbnail": {"id": 4912, "materialId": 15469, "title": "", "filename": "15469.5a6a6d4b393c5.jpg", "createdByUserId": 1, "createdAtDiff": "6 years ago"}}}, {"percentageAmount": "3.9000", "isAdditional": false, "material": {"id": 15082, "name": "Borax", "isAnalysis": false, "isPrimitive": true, "isPrivate": false, "isArchived": true, "materialStateId": 2, "analysis": {"percentageAnalysis": {"B2O3": "36.5269", "Na2O": "16.2631", "loi": "47.2100"}, "umfAnalysis": {"B2O3": "1.9995", "Na2O": "1.0000", "SiO2Al2O3Ratio": "0.0000", "R2OTotal": "1.0000", "ROTotal": "0.0000"}, "xUmfAnalysis": {"B2O3": "1.9995", "Na2O": "1.0000", "SiO2Al2O3Ratio": "0.0000", "SiO2xAl2O3Ratio": null, "xAl2O3": null, "R2OTotal": "1.0000", "ROTotal": "0.0000"}, "molPercentageAnalysis": {"B2O3": "66.6610", "Na2O": "33.3390"}, "formulaAnalysis": {"B2O3": "1.9995", "Na2O": "1.0000"}, "thermalExpansion": "14.0673", "weight": "0.0000", "oxideWeight": "0.0000"}, "thumbnail": {"id": 6420, "materialId": 15082, "title": "", "filename": "15082.5b36a8d5d9aa4.jpg", "createdByUserId": 1, "createdAtDiff": "6 years ago"}}}], "analysis": {"percentageAnalysis": {"SiO2": "16.2778", "Al2O3": "7.0352", "B2O3": "13.1748", "Na2O": "2.3788", "K2O": "0.2381", "MgO": "15.6208", "CaO": "8.5905", "P2O5": "0.0899", "TiO2": "0.1113", "ZrO2": "3.4440", "Fe2O3": "0.3109", "loi": "32.7280"}, "umfAnalysis": {"SiO2": "0.4657", "Al2O3": "0.1186", "B2O3": "0.3253", "Na2O": "0.0660", "K2O": "0.0043", "MgO": "0.6663", "CaO": "0.2634", "P2O5": "0.0011", "TiO2": "0.0024", "ZrO2": "0.0481", "Fe2O3": "0.0033", "SiO2Al2O3Ratio": "3.9263", "R2OTotal": "0.0703", "ROTotal": "0.9297"}, "xUmfAnalysis": {"SiO2": "0.4642", "Al2O3": "0.1182", "B2O3": "0.3243", "Na2O": "0.0658", "K2O": "0.0043", "MgO": "0.6641", "CaO": "0.2625", "P2O5": "0.0011", "TiO2": "0.0024", "ZrO2": "0.0479", "Fe2O3": "0.0033", "SiO2Al2O3Ratio": "3.9263", "SiO2xAl2O3Ratio": "3.8486", "xAl2O3": "0.1206", "R2OTotal": "0.0701", "ROTotal": "0.9299"}, "molPercentageAnalysis": {"SiO2": "23.7071", "Al2O3": "6.0380", "B2O3": "16.5600", "Na2O": "3.3586", "K2O": "0.2212", "MgO": "33.9160", "CaO": "13.4055", "P2O5": "0.0554", "TiO2": "0.1219", "ZrO2": "2.4458", "Fe2O3": "0.1704"}, "formulaAnalysis": {"SiO2": "0.2709", "Al2O3": "0.0690", "B2O3": "0.1892", "Na2O": "0.0384", "K2O": "0.0025", "MgO": "0.3876", "CaO": "0.1532", "P2O5": "0.0006", "TiO2": "0.0014", "ZrO2": "0.0279", "Fe2O3": "0.0019"}, "thermalExpansion": "6.2761", "weight": null, "oxideWeight": null}, "images": [{"id": 44011, "materialId": 147985, "title": "Burkett SDSU White Crawl Glaze", "description": null, "ortonConeId": 20, "atmosphereId": 1, "is_color_searchable": 1, "dominantRgbR": 43, "dominantRgbG": 35, "dominantRgbB": 27, "dominantHexColor": "2b231b", "secondaryRgbR": 166, "secondaryRgbG": 161, "secondaryRgbB": 140, "secondaryHexColor": "a6a18c", "filename": "147985.60b7bba540010.jpg", "isPrivate": false, "createdByUser": {"id": 7337, "name": "Alfred Grinding Room - Glazes", "locale": "en", "profile": {"username": "alfredgrindingroom", "title": null, "description": null, "countryId": null, "countryName": null, "url": "http://www.alfredgrindingroom.com/", "pinterest": null, "facebook": null, "instagram": null, "artaxis": null, "paypal": null}, "is_patron": 1, "material_image_count": 345, "createdAt": "2019-02-07T13:46:17", "updatedAt": "2022-04-14T18:56:35"}, "createdByUserId": 7337, "createdAt": "2021-06-02T17:11:02", "createdAtHuman": "02 Jun 2021", "createdAtDiff": "3 years ago", "updatedAt": "2021-06-02T17:11:02", "updatedAtHuman": "02 Jun 2021", "updatedAtDiff": "3 years ago"}, {"id": 44012, "materialId": 147985, "title": "Burkett SDSU White Crawl Glaze", "description": null, "ortonConeId": 17, "atmosphereId": 1, "is_color_searchable": 1, "dominantRgbR": 30, "dominantRgbG": 25, "dominantRgbB": 21, "dominantHexColor": "1e1915", "secondaryRgbR": 162, "secondaryRgbG": 160, "secondaryRgbB": 151, "secondaryHexColor": "a2a097", "filename": "147985.60b7bbb78acc7.jpg", "isPrivate": false, "createdByUser": {"id": 7337, "name": "Alfred Grinding Room - Glazes", "locale": "en", "profile": {"username": "alfredgrindingroom", "title": null, "description": null, "countryId": null, "countryName": null, "url": "http://www.alfredgrindingroom.com/", "pinterest": null, "facebook": null, "instagram": null, "artaxis": null, "paypal": null}, "is_patron": 1, "material_image_count": 345, "createdAt": "2019-02-07T13:46:17", "updatedAt": "2022-04-14T18:56:35"}, "createdByUserId": 7337, "createdAt": "2021-06-02T17:11:20", "createdAtHuman": "02 Jun 2021", "createdAtDiff": "3 years ago", "updatedAt": "2021-06-02T17:11:20", "updatedAtHuman": "02 Jun 2021", "updatedAtDiff": "3 years ago"}], "thumbnail": {"id": 44011, "materialId": 147985, "title": "Burkett SDSU White Crawl Glaze", "description": null, "ortonConeId": 20, "atmosphereId": 1, "is_color_searchable": 1, "dominantRgbR": 43, "dominantRgbG": 35, "dominantRgbB": 27, "dominantHexColor": "2b231b", "secondaryRgbR": 166, "secondaryRgbG": 161, "secondaryRgbB": 140, "secondaryHexColor": "a6a18c", "filename": "147985.60b7bba540010.jpg", "isPrivate": false, "createdByUser": {"id": 7337, "name": "Alfred Grinding Room - Glazes", "locale": "en", "profile": {"username": "alfredgrindingroom", "title": null, "description": null, "countryId": null, "countryName": null, "url": "http://www.alfredgrindingroom.com/", "pinterest": null, "facebook": null, "instagram": null, "artaxis": null, "paypal": null}, "is_patron": 1, "material_image_count": 345, "createdAt": "2019-02-07T13:46:17", "updatedAt": "2022-04-14T18:56:35"}, "createdByUserId": 7337, "createdAt": "2021-06-02T17:11:02", "createdAtHuman": "02 Jun 2021", "createdAtDiff": "3 years ago", "updatedAt": "2021-06-02T17:11:02", "updatedAtHuman": "02 Jun 2021", "updatedAtDiff": "3 years ago"}, "reviews": [], "comments": [], "translations": [{"id": 247142, "name": "Burkett SDSU White Crawl Glaze", "other_names": null, "description": "Glaze from Andrea Gill handout of glazes she compiled during her tenure at Alfred University.\n\nDo not add CMC gum -- it will prevent crawling. \nMixing tips: weigh, mix and screen all ingredients EXCEPT the Borax; add borax last (wet it first with hot water)\nGlaze is designed to break into a checked crawl; can apply over other fired glazed", "locale": "en"}], "createdByUser": {"id": 7337, "name": "Alfred Grinding Room - Glazes", "locale": "en", "profile": {"username": "alfredgrindingroom", "title": null, "description": null, "countryId": null, "countryName": null, "url": "http://www.alfredgrindingroom.com/", "pinterest": null, "facebook": null, "instagram": null, "artaxis": null, "paypal": null}, "is_patron": 1, "material_image_count": 345, "createdAt": "2019-02-07T13:46:17", "updatedAt": "2022-04-14T18:56:35"}}}