{"data": {"id": 147983, "parentId": null, "children": [], "siblings": [], "revisionParentId": null, "revisionChildren": [], "name": "Aventurine", "otherNames": null, "formula": null, "description": "Glaze from Andrea Gill handout of glazes she compiled during her tenure at Alfred University.", "isAnalysis": false, "isPrimitive": false, "isArchived": false, "default_locale": "en", "materialStateId": 1, "materialStateName": "Testing", "materialTypeId": 460, "baseTypeId": 460, "materialType": {"id": 460, "parentMaterialType": {"id": 100}}, "fromOrtonConeId": 20, "fromOrtonConeName": "04", "toOrtonConeId": 20, "toOrtonConeName": "04", "kilnSchedule": null, "waterAmount": null, "specificGravity": null, "thumbnailId": 44017, "ratingTotal": 0, "ratingNumber": 0, "ratingAverage": "0.00", "isPrivate": false, "createdByUserId": 7337, "createdAt": "2021-05-17T16:29:16", "createdAtHuman": "17 May 2021", "createdAtDiff": "3 years ago", "updatedAt": "2022-03-23T16:49:03", "updatedAtHuman": "23 Mar 2022", "updatedAtDiff": "2 years ago", "materialComponentTotalAmount": 100.30000000000001, "atmospheres": [], "materialComponents": [{"percentageAmount": "40.0000", "isAdditional": false, "material": {"id": 15400, "name": "Silica", "isAnalysis": false, "isPrimitive": true, "isPrivate": false, "isArchived": true, "materialStateId": 2, "analysis": {"percentageAnalysis": {"SiO2": "100.0000", "loi": "0.0000"}, "umfAnalysis": {"SiO2Al2O3Ratio": "0.0000", "R2OTotal": "0.0000", "ROTotal": "0.0000"}, "xUmfAnalysis": {"SiO2Al2O3Ratio": "0.0000", "SiO2xAl2O3Ratio": null, "xAl2O3": null, "R2OTotal": "0.0000", "ROTotal": "0.0000"}, "molPercentageAnalysis": {"SiO2": "100.0000"}, "formulaAnalysis": {"SiO2": "1.0000"}, "thermalExpansion": "3.5000", "weight": "60.1000", "oxideWeight": "60.0844"}, "thumbnail": {"id": 4900, "materialId": 15400, "title": "", "filename": "15400.5a6a6c135b2e7.jpg", "createdByUserId": 1, "createdAtDiff": "6 years ago"}}}, {"percentageAmount": "39.0000", "isAdditional": false, "material": {"id": 15082, "name": "Borax", "isAnalysis": false, "isPrimitive": true, "isPrivate": false, "isArchived": true, "materialStateId": 2, "analysis": {"percentageAnalysis": {"B2O3": "36.5269", "Na2O": "16.2631", "loi": "47.2100"}, "umfAnalysis": {"B2O3": "1.9995", "Na2O": "1.0000", "SiO2Al2O3Ratio": "0.0000", "R2OTotal": "1.0000", "ROTotal": "0.0000"}, "xUmfAnalysis": {"B2O3": "1.9995", "Na2O": "1.0000", "SiO2Al2O3Ratio": "0.0000", "SiO2xAl2O3Ratio": null, "xAl2O3": null, "R2OTotal": "1.0000", "ROTotal": "0.0000"}, "molPercentageAnalysis": {"B2O3": "66.6610", "Na2O": "33.3390"}, "formulaAnalysis": {"B2O3": "1.9995", "Na2O": "1.0000"}, "thermalExpansion": "14.0673", "weight": "0.0000", "oxideWeight": "0.0000"}, "thumbnail": {"id": 6420, "materialId": 15082, "title": "", "filename": "15082.5b36a8d5d9aa4.jpg", "createdByUserId": 1, "createdAtDiff": "6 years ago"}}}, {"percentageAmount": "15.0000", "isAdditional": false, "material": {"id": 15387, "name": "Red Iron Oxide", "isAnalysis": false, "isPrimitive": true, "isPrivate": false, "isArchived": true, "materialStateId": 2, "analysis": {"percentageAnalysis": {"Fe2O3": "95.0000", "loi": "5.0000"}, "umfAnalysis": {"SiO2Al2O3Ratio": "0.0000", "R2OTotal": "0.0000", "ROTotal": "0.0000"}, "xUmfAnalysis": {"Fe2O3": "1.0000", "SiO2Al2O3Ratio": "0.0000", "SiO2xAl2O3Ratio": null, "xAl2O3": null, "R2OTotal": "0.0000", "ROTotal": "1.0000"}, "molPercentageAnalysis": {"Fe2O3": "100.0000"}, "formulaAnalysis": {"Fe2O3": "1.0000"}, "thermalExpansion": "12.5000", "weight": "0.0000", "oxideWeight": "159.6887"}, "thumbnail": {"id": 4896, "materialId": 15387, "title": "", "filename": "15387.5a6a6bb002155.jpg", "createdByUserId": 1, "createdAtDiff": "6 years ago"}}}, {"percentageAmount": "2.7000", "isAdditional": false, "material": {"id": 15083, "name": "Boric Acid", "isAnalysis": false, "isPrimitive": true, "isPrivate": false, "isArchived": true, "materialStateId": 2, "analysis": {"percentageAnalysis": {"B2O3": "56.4000", "loi": "43.6000"}, "umfAnalysis": {"SiO2Al2O3Ratio": "0.0000", "R2OTotal": "0.0000", "ROTotal": "0.0000"}, "xUmfAnalysis": {"SiO2Al2O3Ratio": "0.0000", "SiO2xAl2O3Ratio": null, "xAl2O3": null, "R2OTotal": "0.0000", "ROTotal": "0.0000"}, "molPercentageAnalysis": {"B2O3": "100.0000"}, "formulaAnalysis": {"B2O3": "1.0000"}, "thermalExpansion": "3.1000", "weight": "0.0000", "oxideWeight": "0.0000"}, "thumbnail": {"id": 14108, "materialId": 15083, "title": null, "filename": "15083.5d4b64859362f.jpg", "createdByUserId": 10313, "createdAtDiff": "5 years ago"}}}, {"percentageAmount": "2.2000", "isAdditional": false, "material": {"id": 15062, "name": "Barium Carbonate", "isAnalysis": false, "isPrimitive": true, "isPrivate": false, "isArchived": true, "materialStateId": 2, "analysis": {"percentageAnalysis": {"BaO": "77.6600", "loi": "22.3400"}, "umfAnalysis": {"BaO": "1.0000", "SiO2Al2O3Ratio": "0.0000", "R2OTotal": "0.0000", "ROTotal": "1.0000"}, "xUmfAnalysis": {"BaO": "1.0000", "SiO2Al2O3Ratio": "0.0000", "SiO2xAl2O3Ratio": null, "xAl2O3": null, "R2OTotal": "0.0000", "ROTotal": "1.0000"}, "molPercentageAnalysis": {"BaO": "100.0000"}, "formulaAnalysis": {"BaO": "1.0000"}, "thermalExpansion": "12.9000", "weight": "153.3000", "oxideWeight": "153.3271"}, "thumbnail": {"id": 4881, "materialId": 15062, "title": "", "filename": "15062.5a6a6a1f3f446.jpg", "createdByUserId": 1, "createdAtDiff": "6 years ago"}}}, {"percentageAmount": "1.4000", "isAdditional": false, "material": {"id": 15137, "name": "EP Kaolin", "isAnalysis": false, "isPrimitive": true, "isPrivate": false, "isArchived": true, "materialStateId": 2, "analysis": {"percentageAnalysis": {"SiO2": "45.7270", "Al2O3": "37.3603", "Na2O": "0.0681", "K2O": "0.3451", "MgO": "0.1034", "CaO": "0.1849", "P2O5": "0.2601", "TiO2": "0.3804", "Fe2O3": "0.7607", "loi": "14.8100"}, "umfAnalysis": {"SiO2": "71.6261", "Al2O3": "34.4859", "Na2O": "0.1034", "K2O": "0.3448", "MgO": "0.2415", "CaO": "0.3103", "P2O5": "0.1725", "TiO2": "0.4483", "Fe2O3": "0.4483", "SiO2Al2O3Ratio": "2.0770", "R2OTotal": "0.4482", "ROTotal": "0.5518"}, "xUmfAnalysis": {"SiO2": "49.4540", "Al2O3": "23.8106", "Na2O": "0.0714", "K2O": "0.2381", "MgO": "0.1667", "CaO": "0.2143", "P2O5": "0.1191", "TiO2": "0.3095", "Fe2O3": "0.3096", "SiO2Al2O3Ratio": "2.0770", "SiO2xAl2O3Ratio": "2.0503", "xAl2O3": "24.1202", "R2OTotal": "0.3095", "ROTotal": "0.6905"}, "molPercentageAnalysis": {"SiO2": "66.2095", "Al2O3": "31.8779", "Na2O": "0.0956", "K2O": "0.3187", "MgO": "0.2232", "CaO": "0.2869", "P2O5": "0.1594", "TiO2": "0.4144", "Fe2O3": "0.4144"}, "formulaAnalysis": {"SiO2": "2.0770", "Al2O3": "1.0000", "Na2O": "0.0030", "K2O": "0.0100", "MgO": "0.0070", "CaO": "0.0090", "P2O5": "0.0050", "TiO2": "0.0130", "Fe2O3": "0.0130"}, "thermalExpansion": "5.0178", "weight": "0.0000", "oxideWeight": "232.4953"}, "thumbnail": {"id": 4952, "materialId": 15137, "title": "", "filename": "15137.5a6ba32627dcd.jpg", "createdByUserId": 1, "createdAtDiff": "6 years ago"}}}], "analysis": {"percentageAnalysis": {"SiO2": "40.5186", "Al2O3": "0.5215", "B2O3": "15.7211", "Na2O": "6.3246", "K2O": "0.0048", "MgO": "0.0014", "CaO": "0.0026", "BaO": "1.7034", "P2O5": "0.0036", "TiO2": "0.0053", "Fe2O3": "14.2180", "loi": "20.9750"}, "umfAnalysis": {"SiO2": "5.9526", "Al2O3": "0.0451", "B2O3": "1.9933", "Na2O": "0.9008", "K2O": "0.0005", "MgO": "0.0003", "CaO": "0.0004", "BaO": "0.0981", "P2O5": "0.0002", "TiO2": "0.0006", "Fe2O3": "0.7859", "SiO2Al2O3Ratio": "131.8515", "R2OTotal": "0.9012", "ROTotal": "0.0988"}, "xUmfAnalysis": {"SiO2": "3.3331", "Al2O3": "0.0253", "B2O3": "1.1161", "Na2O": "0.5044", "K2O": "0.0003", "MgO": "0.0002", "CaO": "0.0002", "BaO": "0.0549", "P2O5": "0.0001", "TiO2": "0.0003", "Fe2O3": "0.4401", "SiO2Al2O3Ratio": "131.8515", "SiO2xAl2O3Ratio": "130.1596", "xAl2O3": "0.0256", "R2OTotal": "0.5046", "ROTotal": "0.4954"}, "molPercentageAnalysis": {"SiO2": "60.8790", "Al2O3": "0.4617", "B2O3": "20.3858", "Na2O": "9.2123", "K2O": "0.0046", "MgO": "0.0032", "CaO": "0.0042", "BaO": "1.0030", "P2O5": "0.0023", "TiO2": "0.0060", "Fe2O3": "8.0379"}, "formulaAnalysis": {"SiO2": "0.6744", "Al2O3": "0.0051", "B2O3": "0.2258", "Na2O": "0.1020", "K2O": "0.0001", "BaO": "0.0111", "TiO2": "0.0001", "Fe2O3": "0.0890"}, "thermalExpansion": "8.0807", "weight": null, "oxideWeight": null}, "images": [{"id": 44017, "materialId": 147983, "title": "Aventurine", "description": null, "ortonConeId": 20, "atmosphereId": 1, "is_color_searchable": 1, "dominantRgbR": 29, "dominantRgbG": 25, "dominantRgbB": 23, "dominantHexColor": "1d1917", "secondaryRgbR": 149, "secondaryRgbG": 140, "secondaryRgbB": 144, "secondaryHexColor": "958c90", "filename": "147983.60b7bc77b4ec6.jpg", "isPrivate": false, "createdByUser": {"id": 7337, "name": "Alfred Grinding Room - Glazes", "locale": "en", "profile": {"username": "alfredgrindingroom", "title": null, "description": null, "countryId": null, "countryName": null, "url": "http://www.alfredgrindingroom.com/", "pinterest": null, "facebook": null, "instagram": null, "artaxis": null, "paypal": null}, "is_patron": 1, "material_image_count": 345, "createdAt": "2019-02-07T13:46:17", "updatedAt": "2022-04-14T18:56:35"}, "createdByUserId": 7337, "createdAt": "2021-06-02T17:14:32", "createdAtHuman": "02 Jun 2021", "createdAtDiff": "3 years ago", "updatedAt": "2021-06-02T17:14:32", "updatedAtHuman": "02 Jun 2021", "updatedAtDiff": "3 years ago"}, {"id": 44018, "materialId": 147983, "title": "Aventurine", "description": null, "ortonConeId": 17, "atmosphereId": 1, "is_color_searchable": 1, "dominantRgbR": 35, "dominantRgbG": 29, "dominantRgbB": 25, "dominantHexColor": "231d19", "secondaryRgbR": 163, "secondaryRgbG": 155, "secondaryRgbB": 155, "secondaryHexColor": "a39b9b", "filename": "147983.60b7bc8e9b0f2.jpg", "isPrivate": false, "createdByUser": {"id": 7337, "name": "Alfred Grinding Room - Glazes", "locale": "en", "profile": {"username": "alfredgrindingroom", "title": null, "description": null, "countryId": null, "countryName": null, "url": "http://www.alfredgrindingroom.com/", "pinterest": null, "facebook": null, "instagram": null, "artaxis": null, "paypal": null}, "is_patron": 1, "material_image_count": 345, "createdAt": "2019-02-07T13:46:17", "updatedAt": "2022-04-14T18:56:35"}, "createdByUserId": 7337, "createdAt": "2021-06-02T17:14:55", "createdAtHuman": "02 Jun 2021", "createdAtDiff": "3 years ago", "updatedAt": "2021-06-02T17:14:55", "updatedAtHuman": "02 Jun 2021", "updatedAtDiff": "3 years ago"}], "thumbnail": {"id": 44017, "materialId": 147983, "title": "Aventurine", "description": null, "ortonConeId": 20, "atmosphereId": 1, "is_color_searchable": 1, "dominantRgbR": 29, "dominantRgbG": 25, "dominantRgbB": 23, "dominantHexColor": "1d1917", "secondaryRgbR": 149, "secondaryRgbG": 140, "secondaryRgbB": 144, "secondaryHexColor": "958c90", "filename": "147983.60b7bc77b4ec6.jpg", "isPrivate": false, "createdByUser": {"id": 7337, "name": "Alfred Grinding Room - Glazes", "locale": "en", "profile": {"username": "alfredgrindingroom", "title": null, "description": null, "countryId": null, "countryName": null, "url": "http://www.alfredgrindingroom.com/", "pinterest": null, "facebook": null, "instagram": null, "artaxis": null, "paypal": null}, "is_patron": 1, "material_image_count": 345, "createdAt": "2019-02-07T13:46:17", "updatedAt": "2022-04-14T18:56:35"}, "createdByUserId": 7337, "createdAt": "2021-06-02T17:14:32", "createdAtHuman": "02 Jun 2021", "createdAtDiff": "3 years ago", "updatedAt": "2021-06-02T17:14:32", "updatedAtHuman": "02 Jun 2021", "updatedAtDiff": "3 years ago"}, "reviews": [], "comments": [{"id": 13515, "parentId": null, "materialId": 147983, "userId": 16635, "content": "can you tell me please your firing shedule?Thank you", "filename": null, "user": {"id": 16635, "name": "Julianavelezart", "locale": "en", "profile": {"username": "julianavelezart", "title": "Carpe Diem", "description": null, "avatar": "/uploads/profiles/69/xs_6269.62f25be379f1b.jpg", "countryId": null, "countryName": null, "url": null, "pinterest": null, "facebook": null, "instagram": "julianavelezart", "artaxis": null, "paypal": null}, "is_patron": 0, "material_image_count": 6, "createdAt": "2020-06-01T19:59:52", "updatedAt": "2024-09-02T15:35:33"}, "createdAt": "2022-03-23T16:49:03", "createdAtHuman": "23 Mar 2022", "createdAtDiff": "2 years ago", "updatedAt": "2022-03-23T16:49:03", "updatedAtHuman": "23 Mar 2022", "updatedAtDiff": "2 years ago"}], "translations": [{"id": 247145, "name": "Aventurine", "other_names": null, "description": "Glaze from Andrea Gill handout of glazes she compiled during her tenure at Alfred University.", "locale": "en"}], "createdByUser": {"id": 7337, "name": "Alfred Grinding Room - Glazes", "locale": "en", "profile": {"username": "alfredgrindingroom", "title": null, "description": null, "countryId": null, "countryName": null, "url": "http://www.alfredgrindingroom.com/", "pinterest": null, "facebook": null, "instagram": null, "artaxis": null, "paypal": null}, "is_patron": 1, "material_image_count": 345, "createdAt": "2019-02-07T13:46:17", "updatedAt": "2022-04-14T18:56:35"}}}