{"data": {"id": 148224, "parentId": null, "children": [], "siblings": [], "revisionParentId": 148223, "revisionParentName": "Lisa Orr's Beautiful Gold", "revisionChildren": [{"id": 148229, "name": "Lisa Orr's Beautiful Turquoise Blue", "createdByUserId": 7337}], "name": "Lisa Orr's Beautiful Deep Blue", "otherNames": null, "formula": null, "description": "Glaze from Andrea Gill handout of glazes she compiled during her tenure at Alfred University.", "isAnalysis": false, "isPrimitive": false, "isArchived": false, "default_locale": "en", "materialStateId": 1, "materialStateName": "Testing", "materialTypeId": 460, "baseTypeId": 460, "materialType": {"id": 460, "parentMaterialType": {"id": 100}}, "fromOrtonConeId": 20, "fromOrtonConeName": "04", "toOrtonConeId": 20, "toOrtonConeName": "04", "kilnSchedule": null, "waterAmount": null, "specificGravity": null, "thumbnailId": 43762, "ratingTotal": 0, "ratingNumber": 0, "ratingAverage": "0.00", "isPrivate": false, "createdByUserId": 7337, "createdAt": "2021-05-18T16:21:01", "createdAtHuman": "18 May 2021", "createdAtDiff": "3 years ago", "updatedAt": "2021-05-28T19:36:42", "updatedAtHuman": "28 May 2021", "updatedAtDiff": "3 years ago", "materialComponentTotalAmount": 114.33, "atmospheres": [], "materialComponents": [{"percentageAmount": "67.0000", "isAdditional": false, "material": {"id": 15167, "name": "Ferro Frit 3110", "isAnalysis": false, "isPrimitive": true, "isPrivate": false, "isArchived": true, "materialStateId": 2, "analysis": {"percentageAnalysis": {"SiO2": "69.7700", "Al2O3": "3.7000", "B2O3": "2.6400", "Na2O": "15.2400", "K2O": "2.3600", "CaO": "6.2900", "loi": "0.0000"}, "umfAnalysis": {"SiO2": "3.0309", "Al2O3": "0.0947", "B2O3": "0.0990", "Na2O": "0.6418", "K2O": "0.0654", "CaO": "0.2928", "SiO2Al2O3Ratio": "31.9989", "R2OTotal": "0.7072", "ROTotal": "0.2928"}, "xUmfAnalysis": {"SiO2": "3.0309", "Al2O3": "0.0947", "B2O3": "0.0990", "Na2O": "0.6418", "K2O": "0.0654", "CaO": "0.2928", "SiO2Al2O3Ratio": "31.9989", "SiO2xAl2O3Ratio": "31.9989", "xAl2O3": "0.0947", "R2OTotal": "0.7072", "ROTotal": "0.2928"}, "molPercentageAnalysis": {"SiO2": "71.7444", "Al2O3": "2.2421", "B2O3": "2.3429", "Na2O": "15.1924", "K2O": "1.5480", "CaO": "6.9303"}, "formulaAnalysis": {"SiO2": "3.0309", "Al2O3": "0.0947", "B2O3": "0.0990", "Na2O": "0.6418", "K2O": "0.0654", "CaO": "0.2928"}, "thermalExpansion": "10.3669", "weight": "261.0209", "oxideWeight": "261.0209"}, "thumbnail": {"id": 4938, "materialId": 15167, "title": "", "filename": "15167.5a6ba1d558762.jpg", "createdByUserId": 1, "createdAtDiff": "6 years ago"}}}, {"percentageAmount": "16.0000", "isAdditional": false, "material": {"id": 15406, "name": "Soda Ash", "isAnalysis": false, "isPrimitive": true, "isPrivate": false, "isArchived": true, "materialStateId": 2, "analysis": {"percentageAnalysis": {"Na2O": "50.0000", "loi": "50.0000"}, "umfAnalysis": {"Na2O": "1.0000", "SiO2Al2O3Ratio": "0.0000", "R2OTotal": "1.0000", "ROTotal": "0.0000"}, "xUmfAnalysis": {"Na2O": "1.0000", "SiO2Al2O3Ratio": "0.0000", "SiO2xAl2O3Ratio": null, "xAl2O3": null, "R2OTotal": "1.0000", "ROTotal": "0.0000"}, "molPercentageAnalysis": {"Na2O": "100.0000"}, "formulaAnalysis": {"Na2O": "1.0000"}, "thermalExpansion": "38.7000", "weight": "124.0000", "oxideWeight": "61.9790"}, "thumbnail": {"id": 4898, "materialId": 15406, "title": "", "filename": "15406.5a6a6bf58f262.jpg", "createdByUserId": 1, "createdAtDiff": "6 years ago"}}}, {"percentageAmount": "10.0000", "isAdditional": false, "material": {"id": 15252, "name": "Gerstley Borate", "isAnalysis": false, "isPrimitive": true, "isPrivate": false, "isArchived": true, "materialStateId": 2, "analysis": {"percentageAnalysis": {"SiO2": "14.7990", "Al2O3": "1.0023", "B2O3": "26.7994", "Na2O": "4.0006", "K2O": "0.4016", "MgO": "3.4991", "CaO": "19.3978", "P2O5": "0.0997", "TiO2": "0.1001", "Fe2O3": "0.4004", "loi": "29.5000"}, "umfAnalysis": {"SiO2": "0.4911", "Al2O3": "0.0196", "B2O3": "0.7675", "Na2O": "0.1287", "K2O": "0.0085", "MgO": "0.1731", "CaO": "0.6897", "P2O5": "0.0014", "TiO2": "0.0025", "Fe2O3": "0.0050", "SiO2Al2O3Ratio": "25.0555", "R2OTotal": "0.1372", "ROTotal": "0.8628"}, "xUmfAnalysis": {"SiO2": "0.4886", "Al2O3": "0.0195", "B2O3": "0.7637", "Na2O": "0.1281", "K2O": "0.0085", "MgO": "0.1722", "CaO": "0.6863", "P2O5": "0.0014", "TiO2": "0.0025", "Fe2O3": "0.0050", "SiO2Al2O3Ratio": "25.0555", "SiO2xAl2O3Ratio": "22.2222", "xAl2O3": "0.0220", "R2OTotal": "0.1365", "ROTotal": "0.8635"}, "molPercentageAnalysis": {"SiO2": "21.4721", "Al2O3": "0.8570", "B2O3": "33.5582", "Na2O": "5.6272", "K2O": "0.3717", "MgO": "7.5686", "CaO": "30.1561", "P2O5": "0.0612", "TiO2": "0.1093", "Fe2O3": "0.2186"}, "formulaAnalysis": {"SiO2": "0.4911", "Al2O3": "0.0196", "B2O3": "0.7675", "Na2O": "0.1287", "K2O": "0.0085", "MgO": "0.1731", "CaO": "0.6897", "P2O5": "0.0014", "TiO2": "0.0025", "Fe2O3": "0.0050"}, "thermalExpansion": "8.6800", "weight": "140.6000", "oxideWeight": "140.5683"}, "thumbnail": {"id": 4954, "materialId": 15252, "title": "", "filename": "15252.5a6ba332a34ef.jpg", "createdByUserId": 1, "createdAtDiff": "6 years ago"}}}, {"percentageAmount": "8.0000", "isAdditional": false, "material": {"id": 15400, "name": "Silica", "isAnalysis": false, "isPrimitive": true, "isPrivate": false, "isArchived": true, "materialStateId": 2, "analysis": {"percentageAnalysis": {"SiO2": "100.0000", "loi": "0.0000"}, "umfAnalysis": {"SiO2Al2O3Ratio": "0.0000", "R2OTotal": "0.0000", "ROTotal": "0.0000"}, "xUmfAnalysis": {"SiO2Al2O3Ratio": "0.0000", "SiO2xAl2O3Ratio": null, "xAl2O3": null, "R2OTotal": "0.0000", "ROTotal": "0.0000"}, "molPercentageAnalysis": {"SiO2": "100.0000"}, "formulaAnalysis": {"SiO2": "1.0000"}, "thermalExpansion": "3.5000", "weight": "60.1000", "oxideWeight": "60.0844"}, "thumbnail": {"id": 4900, "materialId": 15400, "title": "", "filename": "15400.5a6a6c135b2e7.jpg", "createdByUserId": 1, "createdAtDiff": "6 years ago"}}}, {"percentageAmount": "6.0000", "isAdditional": false, "material": {"id": 15120, "name": "Copper Carbonate", "isAnalysis": false, "isPrimitive": true, "isPrivate": false, "isArchived": true, "materialStateId": 2, "analysis": {"percentageAnalysis": {"CuO": "64.3800", "loi": "35.6200"}, "umfAnalysis": {"SiO2Al2O3Ratio": "0.0000", "R2OTotal": "0.0000", "ROTotal": "0.0000"}, "xUmfAnalysis": {"CuO": "1.0000", "SiO2Al2O3Ratio": "0.0000", "SiO2xAl2O3Ratio": null, "xAl2O3": null, "R2OTotal": "1.0000", "ROTotal": "0.0000"}, "molPercentageAnalysis": {"CuO": "100.0000"}, "formulaAnalysis": {"CuO": "1.0000"}, "thermalExpansion": "0.0000", "weight": "79.5400", "oxideWeight": "79.5454"}, "thumbnail": {"id": 16812, "materialId": 15120, "title": null, "filename": "15120.5de7cc4e7969f.jpg", "createdByUserId": 7, "createdAtDiff": "4 years ago"}}}, {"percentageAmount": "5.0000", "isAdditional": false, "material": {"id": 15137, "name": "EP Kaolin", "isAnalysis": false, "isPrimitive": true, "isPrivate": false, "isArchived": true, "materialStateId": 2, "analysis": {"percentageAnalysis": {"SiO2": "45.7270", "Al2O3": "37.3603", "Na2O": "0.0681", "K2O": "0.3451", "MgO": "0.1034", "CaO": "0.1849", "P2O5": "0.2601", "TiO2": "0.3804", "Fe2O3": "0.7607", "loi": "14.8100"}, "umfAnalysis": {"SiO2": "71.6261", "Al2O3": "34.4859", "Na2O": "0.1034", "K2O": "0.3448", "MgO": "0.2415", "CaO": "0.3103", "P2O5": "0.1725", "TiO2": "0.4483", "Fe2O3": "0.4483", "SiO2Al2O3Ratio": "2.0770", "R2OTotal": "0.4482", "ROTotal": "0.5518"}, "xUmfAnalysis": {"SiO2": "49.4540", "Al2O3": "23.8106", "Na2O": "0.0714", "K2O": "0.2381", "MgO": "0.1667", "CaO": "0.2143", "P2O5": "0.1191", "TiO2": "0.3095", "Fe2O3": "0.3096", "SiO2Al2O3Ratio": "2.0770", "SiO2xAl2O3Ratio": "2.0503", "xAl2O3": "24.1202", "R2OTotal": "0.3095", "ROTotal": "0.6905"}, "molPercentageAnalysis": {"SiO2": "66.2095", "Al2O3": "31.8779", "Na2O": "0.0956", "K2O": "0.3187", "MgO": "0.2232", "CaO": "0.2869", "P2O5": "0.1594", "TiO2": "0.4144", "Fe2O3": "0.4144"}, "formulaAnalysis": {"SiO2": "2.0770", "Al2O3": "1.0000", "Na2O": "0.0030", "K2O": "0.0100", "MgO": "0.0070", "CaO": "0.0090", "P2O5": "0.0050", "TiO2": "0.0130", "Fe2O3": "0.0130"}, "thermalExpansion": "5.0178", "weight": "0.0000", "oxideWeight": "232.4953"}, "thumbnail": {"id": 4952, "materialId": 15137, "title": "", "filename": "15137.5a6ba32627dcd.jpg", "createdByUserId": 1, "createdAtDiff": "6 years ago"}}}, {"percentageAmount": "2.0000", "isAdditional": false, "material": {"id": 15072, "name": "Bentonite", "isAnalysis": false, "isPrimitive": true, "isPrivate": false, "isArchived": true, "materialStateId": 2, "analysis": {"percentageAnalysis": {"SiO2": "59.3295", "Al2O3": "20.1153", "Na2O": "3.0194", "K2O": "1.0064", "MgO": "2.0096", "CaO": "1.0057", "Fe2O3": "3.5140", "loi": "10.0000"}, "umfAnalysis": {"SiO2": "7.7630", "Al2O3": "1.5510", "Na2O": "0.3830", "K2O": "0.0840", "MgO": "0.3920", "CaO": "0.1410", "Fe2O3": "0.1730", "SiO2Al2O3Ratio": "5.0051", "R2OTotal": "0.4670", "ROTotal": "0.5330"}, "xUmfAnalysis": {"SiO2": "6.6181", "Al2O3": "1.3223", "Na2O": "0.3265", "K2O": "0.0716", "MgO": "0.3342", "CaO": "0.1202", "Fe2O3": "0.1475", "SiO2Al2O3Ratio": "5.0051", "SiO2xAl2O3Ratio": "5.0051", "xAl2O3": "1.3223", "R2OTotal": "0.3981", "ROTotal": "0.6019"}, "molPercentageAnalysis": {"SiO2": "74.0248", "Al2O3": "14.7899", "Na2O": "3.6522", "K2O": "0.8010", "MgO": "3.7380", "CaO": "1.3445", "Fe2O3": "1.6497"}, "formulaAnalysis": {"SiO2": "5.0051", "Al2O3": "1.0000", "Na2O": "0.2469", "K2O": "0.0542", "MgO": "0.2527", "CaO": "0.0909", "Fe2O3": "0.1115"}, "thermalExpansion": "6.0953", "weight": "0.0000", "oxideWeight": "707.5601"}, "thumbnail": {"id": 4882, "materialId": 15072, "title": "", "filename": "15072.5a6a6a3c01481.jpg", "createdByUserId": 1, "createdAtDiff": "6 years ago"}}}, {"percentageAmount": "0.3300", "isAdditional": false, "material": {"id": 15114, "name": "Cobalt Carbonate", "isAnalysis": false, "isPrimitive": true, "isPrivate": false, "isArchived": true, "materialStateId": 2, "analysis": {"percentageAnalysis": {"CoO": "63.0000", "loi": "37.0000"}, "umfAnalysis": {"SiO2Al2O3Ratio": "0.0000", "R2OTotal": "0.0000", "ROTotal": "0.0000"}, "xUmfAnalysis": {"CoO": "1.0000", "SiO2Al2O3Ratio": "0.0000", "SiO2xAl2O3Ratio": null, "xAl2O3": null, "R2OTotal": "0.0000", "ROTotal": "1.0000"}, "molPercentageAnalysis": {"CoO": "100.0000"}, "formulaAnalysis": {"CoO": "1.0000"}, "thermalExpansion": "0.0000", "weight": "74.9200", "oxideWeight": "74.9326"}, "thumbnail": {"id": 16810, "materialId": 15114, "title": null, "filename": "15114.5de7cbf779cf3.jpg", "createdByUserId": 7, "createdAtDiff": "4 years ago"}}}], "analysis": {"percentageAnalysis": {"SiO2": "52.2162", "Al2O3": "4.2417", "B2O3": "3.8911", "Na2O": "16.3340", "K2O": "1.4508", "MgO": "0.3457", "CaO": "5.4084", "P2O5": "0.0201", "TiO2": "0.0254", "Fe2O3": "0.1298", "CoO": "0.1818", "CuO": "3.3786", "loi": "12.3763"}, "umfAnalysis": {"SiO2": "2.2633", "Al2O3": "0.1083", "B2O3": "0.1456", "Na2O": "0.6864", "K2O": "0.0401", "MgO": "0.0223", "CaO": "0.2512", "P2O5": "0.0004", "TiO2": "0.0008", "Fe2O3": "0.0021", "CoO": "0.0063", "CuO": "0.1106", "SiO2Al2O3Ratio": "20.8897", "R2OTotal": "0.7265", "ROTotal": "0.2735"}, "xUmfAnalysis": {"SiO2": "2.0225", "Al2O3": "0.0968", "B2O3": "0.1301", "Na2O": "0.6133", "K2O": "0.0358", "MgO": "0.0200", "CaO": "0.2245", "P2O5": "0.0003", "TiO2": "0.0007", "Fe2O3": "0.0019", "CoO": "0.0056", "CuO": "0.0989", "SiO2Al2O3Ratio": "20.8897", "SiO2xAl2O3Ratio": "20.7312", "xAl2O3": "0.0976", "R2OTotal": "0.7480", "ROTotal": "0.2520"}, "molPercentageAnalysis": {"SiO2": "62.2221", "Al2O3": "2.9786", "B2O3": "4.0017", "Na2O": "18.8692", "K2O": "1.1028", "MgO": "0.6142", "CaO": "6.9054", "P2O5": "0.0101", "TiO2": "0.0228", "Fe2O3": "0.0582", "CoO": "0.1738", "CuO": "3.0411"}, "formulaAnalysis": {"SiO2": "0.8690", "Al2O3": "0.0416", "B2O3": "0.0559", "Na2O": "0.2635", "K2O": "0.0154", "MgO": "0.0086", "CaO": "0.0964", "P2O5": "0.0001", "TiO2": "0.0003", "Fe2O3": "0.0008", "CoO": "0.0024", "CuO": "0.0425"}, "thermalExpansion": "11.2369", "weight": null, "oxideWeight": null}, "images": [{"id": 43762, "materialId": 148224, "title": "Lisa Orr's Beautiful Deep Blue", "description": null, "is_color_searchable": 1, "dominantRgbR": 13, "dominantRgbG": 15, "dominantRgbB": 13, "dominantHexColor": "0d0f0d", "secondaryRgbR": 109, "secondaryRgbG": 112, "secondaryRgbB": 114, "secondaryHexColor": "6d7072", "filename": "148224.60b146280fddb.jpg", "isPrivate": false, "createdByUser": {"id": 7337, "name": "Alfred Grinding Room - Glazes", "locale": "en", "profile": {"username": "alfredgrindingroom", "title": null, "description": null, "countryId": null, "countryName": null, "url": "http://www.alfredgrindingroom.com/", "pinterest": null, "facebook": null, "instagram": null, "artaxis": null, "paypal": null}, "is_patron": 1, "material_image_count": 345, "createdAt": "2019-02-07T13:46:17", "updatedAt": "2022-04-14T18:56:35"}, "createdByUserId": 7337, "createdAt": "2021-05-28T19:36:08", "createdAtHuman": "28 May 2021", "createdAtDiff": "3 years ago", "updatedAt": "2021-05-28T19:36:08", "updatedAtHuman": "28 May 2021", "updatedAtDiff": "3 years ago"}, {"id": 43763, "materialId": 148224, "title": "Lisa Orr's Beautiful Deep Blue", "description": null, "ortonConeId": 17, "atmosphereId": 1, "is_color_searchable": 1, "dominantRgbR": 14, "dominantRgbG": 15, "dominantRgbB": 13, "dominantHexColor": "0e0f0d", "secondaryRgbR": 119, "secondaryRgbG": 120, "secondaryRgbB": 119, "secondaryHexColor": "777877", "filename": "148224.60b14640aab60.jpg", "isPrivate": false, "createdByUser": {"id": 7337, "name": "Alfred Grinding Room - Glazes", "locale": "en", "profile": {"username": "alfredgrindingroom", "title": null, "description": null, "countryId": null, "countryName": null, "url": "http://www.alfredgrindingroom.com/", "pinterest": null, "facebook": null, "instagram": null, "artaxis": null, "paypal": null}, "is_patron": 1, "material_image_count": 345, "createdAt": "2019-02-07T13:46:17", "updatedAt": "2022-04-14T18:56:35"}, "createdByUserId": 7337, "createdAt": "2021-05-28T19:36:33", "createdAtHuman": "28 May 2021", "createdAtDiff": "3 years ago", "updatedAt": "2021-05-28T19:36:33", "updatedAtHuman": "28 May 2021", "updatedAtDiff": "3 years ago"}], "thumbnail": {"id": 43762, "materialId": 148224, "title": "Lisa Orr's Beautiful Deep Blue", "description": null, "is_color_searchable": 1, "dominantRgbR": 13, "dominantRgbG": 15, "dominantRgbB": 13, "dominantHexColor": "0d0f0d", "secondaryRgbR": 109, "secondaryRgbG": 112, "secondaryRgbB": 114, "secondaryHexColor": "6d7072", "filename": "148224.60b146280fddb.jpg", "isPrivate": false, "createdByUser": {"id": 7337, "name": "Alfred Grinding Room - Glazes", "locale": "en", "profile": {"username": "alfredgrindingroom", "title": null, "description": null, "countryId": null, "countryName": null, "url": "http://www.alfredgrindingroom.com/", "pinterest": null, "facebook": null, "instagram": null, "artaxis": null, "paypal": null}, "is_patron": 1, "material_image_count": 345, "createdAt": "2019-02-07T13:46:17", "updatedAt": "2022-04-14T18:56:35"}, "createdByUserId": 7337, "createdAt": "2021-05-28T19:36:08", "createdAtHuman": "28 May 2021", "createdAtDiff": "3 years ago", "updatedAt": "2021-05-28T19:36:08", "updatedAtHuman": "28 May 2021", "updatedAtDiff": "3 years ago"}, "reviews": [], "comments": [], "translations": [{"id": 245955, "name": "Lisa Orr's Beautiful Deep Blue", "other_names": null, "description": "Glaze from Andrea Gill handout of glazes she compiled during her tenure at Alfred University.", "locale": "en"}], "createdByUser": {"id": 7337, "name": "Alfred Grinding Room - Glazes", "locale": "en", "profile": {"username": "alfredgrindingroom", "title": null, "description": null, "countryId": null, "countryName": null, "url": "http://www.alfredgrindingroom.com/", "pinterest": null, "facebook": null, "instagram": null, "artaxis": null, "paypal": null}, "is_patron": 1, "material_image_count": 345, "createdAt": "2019-02-07T13:46:17", "updatedAt": "2022-04-14T18:56:35"}}}