{"data": {"id": 148211, "parentId": null, "children": [], "siblings": [], "revisionParentId": null, "revisionChildren": [], "name": "Katrina's Excellent Black", "otherNames": null, "formula": null, "description": "Glaze from Andrea Gill handout of glazes she compiled during her tenure at Alfred University.", "isAnalysis": false, "isPrimitive": false, "isArchived": false, "default_locale": "en", "materialStateId": 1, "materialStateName": "Testing", "materialTypeId": 460, "baseTypeId": 460, "materialType": {"id": 460, "parentMaterialType": {"id": 100}}, "fromOrtonConeId": 20, "fromOrtonConeName": "04", "toOrtonConeId": 20, "toOrtonConeName": "04", "kilnSchedule": null, "waterAmount": null, "specificGravity": null, "thumbnailId": 43736, "ratingTotal": 0, "ratingNumber": 0, "ratingAverage": "0.00", "isPrivate": false, "createdByUserId": 7337, "createdAt": "2021-05-18T16:05:06", "createdAtHuman": "18 May 2021", "createdAtDiff": "3 years ago", "updatedAt": "2022-03-07T16:01:35", "updatedAtHuman": "07 Mar 2022", "updatedAtDiff": "2 years ago", "materialComponentTotalAmount": 97.4, "atmospheres": [], "materialComponents": [{"percentageAmount": "42.5000", "isAdditional": false, "material": {"id": 15171, "name": "Ferro Frit 3195", "isAnalysis": false, "isPrimitive": true, "isPrivate": false, "isArchived": true, "materialStateId": 2, "analysis": {"percentageAnalysis": {"SiO2": "48.3500", "Al2O3": "11.9800", "B2O3": "22.6200", "Na2O": "5.6900", "CaO": "11.3600", "loi": "0.0000"}, "umfAnalysis": {"SiO2": "2.7335", "Al2O3": "0.3991", "B2O3": "1.1037", "Na2O": "0.3119", "CaO": "0.6881", "SiO2Al2O3Ratio": "6.8487", "R2OTotal": "0.3119", "ROTotal": "0.6881"}, "xUmfAnalysis": {"SiO2": "2.7335", "Al2O3": "0.3991", "B2O3": "1.1037", "Na2O": "0.3119", "CaO": "0.6881", "SiO2Al2O3Ratio": "6.8487", "SiO2xAl2O3Ratio": "6.8487", "xAl2O3": "0.3991", "R2OTotal": "0.3119", "ROTotal": "0.6881"}, "molPercentageAnalysis": {"SiO2": "52.2027", "Al2O3": "7.6223", "B2O3": "21.0776", "Na2O": "5.9557", "CaO": "13.1418"}, "formulaAnalysis": {"SiO2": "2.7335", "Al2O3": "0.3991", "B2O3": "1.1037", "Na2O": "0.3119", "CaO": "0.6881"}, "thermalExpansion": "7.0315", "weight": "0.0000", "oxideWeight": "0.0000"}, "thumbnail": {"id": 4941, "materialId": 15171, "title": "", "filename": "15171.5a6ba1ed90db2.jpg", "createdByUserId": 1, "createdAtDiff": "6 years ago"}}}, {"percentageAmount": "23.5000", "isAdditional": false, "material": {"id": 15137, "name": "EP Kaolin", "isAnalysis": false, "isPrimitive": true, "isPrivate": false, "isArchived": true, "materialStateId": 2, "analysis": {"percentageAnalysis": {"SiO2": "45.7270", "Al2O3": "37.3603", "Na2O": "0.0681", "K2O": "0.3451", "MgO": "0.1034", "CaO": "0.1849", "P2O5": "0.2601", "TiO2": "0.3804", "Fe2O3": "0.7607", "loi": "14.8100"}, "umfAnalysis": {"SiO2": "71.6261", "Al2O3": "34.4859", "Na2O": "0.1034", "K2O": "0.3448", "MgO": "0.2415", "CaO": "0.3103", "P2O5": "0.1725", "TiO2": "0.4483", "Fe2O3": "0.4483", "SiO2Al2O3Ratio": "2.0770", "R2OTotal": "0.4482", "ROTotal": "0.5518"}, "xUmfAnalysis": {"SiO2": "49.4540", "Al2O3": "23.8106", "Na2O": "0.0714", "K2O": "0.2381", "MgO": "0.1667", "CaO": "0.2143", "P2O5": "0.1191", "TiO2": "0.3095", "Fe2O3": "0.3096", "SiO2Al2O3Ratio": "2.0770", "SiO2xAl2O3Ratio": "2.0503", "xAl2O3": "24.1202", "R2OTotal": "0.3095", "ROTotal": "0.6905"}, "molPercentageAnalysis": {"SiO2": "66.2095", "Al2O3": "31.8779", "Na2O": "0.0956", "K2O": "0.3187", "MgO": "0.2232", "CaO": "0.2869", "P2O5": "0.1594", "TiO2": "0.4144", "Fe2O3": "0.4144"}, "formulaAnalysis": {"SiO2": "2.0770", "Al2O3": "1.0000", "Na2O": "0.0030", "K2O": "0.0100", "MgO": "0.0070", "CaO": "0.0090", "P2O5": "0.0050", "TiO2": "0.0130", "Fe2O3": "0.0130"}, "thermalExpansion": "5.0178", "weight": "0.0000", "oxideWeight": "232.4953"}, "thumbnail": {"id": 4952, "materialId": 15137, "title": "", "filename": "15137.5a6ba32627dcd.jpg", "createdByUserId": 1, "createdAtDiff": "6 years ago"}}}, {"percentageAmount": "13.7000", "isAdditional": false, "material": {"id": 15458, "name": "Wollastonite", "isAnalysis": false, "isPrimitive": true, "isPrivate": false, "isArchived": true, "materialStateId": 2, "analysis": {"percentageAnalysis": {"SiO2": "51.7250", "CaO": "48.2750", "loi": "0.0000"}, "umfAnalysis": {"SiO2": "1.0000", "CaO": "1.0000", "SiO2Al2O3Ratio": "0.0000", "R2OTotal": "0.0000", "ROTotal": "1.0000"}, "xUmfAnalysis": {"SiO2": "1.0000", "CaO": "1.0000", "SiO2Al2O3Ratio": "0.0000", "SiO2xAl2O3Ratio": null, "xAl2O3": null, "R2OTotal": "0.0000", "ROTotal": "1.0000"}, "molPercentageAnalysis": {"SiO2": "49.9998", "CaO": "50.0002"}, "formulaAnalysis": {"SiO2": "1.0000", "CaO": "1.0000"}, "thermalExpansion": "8.9551", "weight": "116.1616", "oxideWeight": "116.1616"}, "thumbnail": {"id": 4909, "materialId": 15458, "title": "", "filename": "15458.5a6a6d2b4e1b0.jpg", "createdByUserId": 1, "createdAtDiff": "6 years ago"}}}, {"percentageAmount": "10.7000", "isAdditional": false, "material": {"id": 15400, "name": "Silica", "isAnalysis": false, "isPrimitive": true, "isPrivate": false, "isArchived": true, "materialStateId": 2, "analysis": {"percentageAnalysis": {"SiO2": "100.0000", "loi": "0.0000"}, "umfAnalysis": {"SiO2Al2O3Ratio": "0.0000", "R2OTotal": "0.0000", "ROTotal": "0.0000"}, "xUmfAnalysis": {"SiO2Al2O3Ratio": "0.0000", "SiO2xAl2O3Ratio": null, "xAl2O3": null, "R2OTotal": "0.0000", "ROTotal": "0.0000"}, "molPercentageAnalysis": {"SiO2": "100.0000"}, "formulaAnalysis": {"SiO2": "1.0000"}, "thermalExpansion": "3.5000", "weight": "60.1000", "oxideWeight": "60.0844"}, "thumbnail": {"id": 4900, "materialId": 15400, "title": "", "filename": "15400.5a6a6c135b2e7.jpg", "createdByUserId": 1, "createdAtDiff": "6 years ago"}}}, {"percentageAmount": "5.0000", "isAdditional": false, "material": {"id": 15482, "name": "Mason 6600 black stain", "isAnalysis": false, "isPrimitive": true, "isPrivate": false, "isArchived": true, "materialStateId": 2, "analysis": {"percentageAnalysis": {"loi": "0.0000"}, "umfAnalysis": {"SiO2Al2O3Ratio": "0.0000", "R2OTotal": "0.0000", "ROTotal": "0.0000"}, "xUmfAnalysis": {"SiO2Al2O3Ratio": "0.0000", "SiO2xAl2O3Ratio": null, "xAl2O3": null, "R2OTotal": "0.0000", "ROTotal": "0.0000"}, "molPercentageAnalysis": [], "formulaAnalysis": [], "thermalExpansion": "0.0000", "weight": "0.0000", "oxideWeight": "0.0000"}, "thumbnail": {"id": 9655, "materialId": 15482, "title": "", "filename": "15482.5c5cb08caff77.jpg", "createdByUserId": 1, "createdAtDiff": "5 years ago"}}}, {"percentageAmount": "2.0000", "isAdditional": false, "material": {"id": 15072, "name": "Bentonite", "isAnalysis": false, "isPrimitive": true, "isPrivate": false, "isArchived": true, "materialStateId": 2, "analysis": {"percentageAnalysis": {"SiO2": "59.3295", "Al2O3": "20.1153", "Na2O": "3.0194", "K2O": "1.0064", "MgO": "2.0096", "CaO": "1.0057", "Fe2O3": "3.5140", "loi": "10.0000"}, "umfAnalysis": {"SiO2": "7.7630", "Al2O3": "1.5510", "Na2O": "0.3830", "K2O": "0.0840", "MgO": "0.3920", "CaO": "0.1410", "Fe2O3": "0.1730", "SiO2Al2O3Ratio": "5.0051", "R2OTotal": "0.4670", "ROTotal": "0.5330"}, "xUmfAnalysis": {"SiO2": "6.6181", "Al2O3": "1.3223", "Na2O": "0.3265", "K2O": "0.0716", "MgO": "0.3342", "CaO": "0.1202", "Fe2O3": "0.1475", "SiO2Al2O3Ratio": "5.0051", "SiO2xAl2O3Ratio": "5.0051", "xAl2O3": "1.3223", "R2OTotal": "0.3981", "ROTotal": "0.6019"}, "molPercentageAnalysis": {"SiO2": "74.0248", "Al2O3": "14.7899", "Na2O": "3.6522", "K2O": "0.8010", "MgO": "3.7380", "CaO": "1.3445", "Fe2O3": "1.6497"}, "formulaAnalysis": {"SiO2": "5.0051", "Al2O3": "1.0000", "Na2O": "0.2469", "K2O": "0.0542", "MgO": "0.2527", "CaO": "0.0909", "Fe2O3": "0.1115"}, "thermalExpansion": "6.0953", "weight": "0.0000", "oxideWeight": "707.5601"}, "thumbnail": {"id": 4882, "materialId": 15072, "title": "", "filename": "15072.5a6a6a3c01481.jpg", "createdByUserId": 1, "createdAtDiff": "6 years ago"}}}], "analysis": {"percentageAnalysis": {"SiO2": "51.6094", "Al2O3": "14.6545", "B2O3": "9.8701", "Na2O": "2.5612", "K2O": "0.1039", "MgO": "0.0662", "CaO": "11.8124", "P2O5": "0.0628", "TiO2": "0.0918", "Fe2O3": "0.2557", "loi": "3.7786"}, "umfAnalysis": {"SiO2": "3.3721", "Al2O3": "0.5643", "B2O3": "0.5566", "Na2O": "0.1622", "K2O": "0.0043", "MgO": "0.0064", "CaO": "0.8270", "P2O5": "0.0017", "TiO2": "0.0045", "Fe2O3": "0.0063", "SiO2Al2O3Ratio": "5.9762", "R2OTotal": "0.1666", "ROTotal": "0.8334"}, "xUmfAnalysis": {"SiO2": "3.3511", "Al2O3": "0.5607", "B2O3": "0.5531", "Na2O": "0.1612", "K2O": "0.0043", "MgO": "0.0064", "CaO": "0.8218", "P2O5": "0.0017", "TiO2": "0.0045", "Fe2O3": "0.0062", "SiO2Al2O3Ratio": "5.9762", "SiO2xAl2O3Ratio": "5.9288", "xAl2O3": "0.5652", "R2OTotal": "0.1655", "ROTotal": "0.8345"}, "molPercentageAnalysis": {"SiO2": "61.2502", "Al2O3": "10.2490", "B2O3": "10.1096", "Na2O": "2.9468", "K2O": "0.0787", "MgO": "0.1171", "CaO": "15.0209", "P2O5": "0.0315", "TiO2": "0.0819", "Fe2O3": "0.1142"}, "formulaAnalysis": {"SiO2": "0.8589", "Al2O3": "0.1437", "B2O3": "0.1418", "Na2O": "0.0413", "K2O": "0.0011", "MgO": "0.0016", "CaO": "0.2106", "P2O5": "0.0004", "TiO2": "0.0011", "Fe2O3": "0.0016"}, "thermalExpansion": "6.4292", "weight": null, "oxideWeight": null}, "images": [{"id": 43736, "materialId": 148211, "title": "Katrina's Excellent Black ", "description": null, "ortonConeId": 20, "atmosphereId": 1, "is_color_searchable": 1, "dominantRgbR": 15, "dominantRgbG": 17, "dominantRgbB": 16, "dominantHexColor": "0f1110", "secondaryRgbR": 71, "secondaryRgbG": 69, "secondaryRgbB": 68, "secondaryHexColor": "474544", "filename": "148211.60b140b2065ca.jpg", "isPrivate": false, "createdByUser": {"id": 7337, "name": "Alfred Grinding Room - Glazes", "locale": "en", "profile": {"username": "alfredgrindingroom", "title": null, "description": null, "countryId": null, "countryName": null, "url": "http://www.alfredgrindingroom.com/", "pinterest": null, "facebook": null, "instagram": null, "artaxis": null, "paypal": null}, "is_patron": 1, "material_image_count": 345, "createdAt": "2019-02-07T13:46:17", "updatedAt": "2022-04-14T18:56:35"}, "createdByUserId": 7337, "createdAt": "2021-05-28T19:12:50", "createdAtHuman": "28 May 2021", "createdAtDiff": "3 years ago", "updatedAt": "2021-05-28T19:12:50", "updatedAtHuman": "28 May 2021", "updatedAtDiff": "3 years ago"}, {"id": 43737, "materialId": 148211, "title": null, "description": null, "ortonConeId": 17, "atmosphereId": 1, "is_color_searchable": 1, "dominantRgbR": 16, "dominantRgbG": 18, "dominantRgbB": 16, "dominantHexColor": "101210", "secondaryRgbR": 76, "secondaryRgbG": 57, "secondaryRgbB": 52, "secondaryHexColor": "4c3934", "filename": "148211.60b140c767816.jpg", "isPrivate": false, "createdByUser": {"id": 7337, "name": "Alfred Grinding Room - Glazes", "locale": "en", "profile": {"username": "alfredgrindingroom", "title": null, "description": null, "countryId": null, "countryName": null, "url": "http://www.alfredgrindingroom.com/", "pinterest": null, "facebook": null, "instagram": null, "artaxis": null, "paypal": null}, "is_patron": 1, "material_image_count": 345, "createdAt": "2019-02-07T13:46:17", "updatedAt": "2022-04-14T18:56:35"}, "createdByUserId": 7337, "createdAt": "2021-05-28T19:13:12", "createdAtHuman": "28 May 2021", "createdAtDiff": "3 years ago", "updatedAt": "2021-05-28T19:13:12", "updatedAtHuman": "28 May 2021", "updatedAtDiff": "3 years ago"}], "thumbnail": {"id": 43736, "materialId": 148211, "title": "Katrina's Excellent Black ", "description": null, "ortonConeId": 20, "atmosphereId": 1, "is_color_searchable": 1, "dominantRgbR": 15, "dominantRgbG": 17, "dominantRgbB": 16, "dominantHexColor": "0f1110", "secondaryRgbR": 71, "secondaryRgbG": 69, "secondaryRgbB": 68, "secondaryHexColor": "474544", "filename": "148211.60b140b2065ca.jpg", "isPrivate": false, "createdByUser": {"id": 7337, "name": "Alfred Grinding Room - Glazes", "locale": "en", "profile": {"username": "alfredgrindingroom", "title": null, "description": null, "countryId": null, "countryName": null, "url": "http://www.alfredgrindingroom.com/", "pinterest": null, "facebook": null, "instagram": null, "artaxis": null, "paypal": null}, "is_patron": 1, "material_image_count": 345, "createdAt": "2019-02-07T13:46:17", "updatedAt": "2022-04-14T18:56:35"}, "createdByUserId": 7337, "createdAt": "2021-05-28T19:12:50", "createdAtHuman": "28 May 2021", "createdAtDiff": "3 years ago", "updatedAt": "2021-05-28T19:12:50", "updatedAtHuman": "28 May 2021", "updatedAtDiff": "3 years ago"}, "reviews": [], "comments": [], "translations": [{"id": 245939, "name": "Katrina's Excellent Black", "other_names": null, "description": "Glaze from Andrea Gill handout of glazes she compiled during her tenure at Alfred University.", "locale": "en"}], "createdByUser": {"id": 7337, "name": "Alfred Grinding Room - Glazes", "locale": "en", "profile": {"username": "alfredgrindingroom", "title": null, "description": null, "countryId": null, "countryName": null, "url": "http://www.alfredgrindingroom.com/", "pinterest": null, "facebook": null, "instagram": null, "artaxis": null, "paypal": null}, "is_patron": 1, "material_image_count": 345, "createdAt": "2019-02-07T13:46:17", "updatedAt": "2022-04-14T18:56:35"}}}