{"data": {"id": 29842, "parentId": null, "children": [], "siblings": [], "revisionParentId": null, "revisionChildren": [], "name": "Stokes C", "otherNames": null, "formula": null, "description": "Mason Stain - Vanadium #6404\n\n*Do not use in glazes intended for use with food. ", "isAnalysis": false, "isPrimitive": false, "isArchived": true, "default_locale": "en", "materialStateId": 2, "materialStateName": "Production", "materialTypeId": 960, "baseTypeId": 460, "materialType": {"id": 960, "parentMaterialType": {"id": 920, "parentMaterialType": {"id": 460, "parentMaterialType": {"id": 100}}}}, "fromOrtonConeId": 30, "fromOrtonConeName": "6", "toOrtonConeId": 30, "toOrtonConeName": "6", "surfaceTypeId": 1, "surfaceTypeName": "Matte", "kilnSchedule": null, "waterAmount": null, "specificGravity": null, "thumbnailId": 9597, "ratingTotal": 0, "ratingNumber": 0, "ratingAverage": "0.00", "isPrivate": false, "createdByUserId": 7337, "createdAt": "2019-02-07T15:14:51", "createdAtHuman": "07 Feb 2019", "createdAtDiff": "5 years ago", "updatedAt": "2021-06-21T00:48:05", "updatedAtHuman": "21 Jun 2021", "updatedAtDiff": "3 years ago", "materialComponentTotalAmount": 106.90000000000002, "atmospheres": [{"id": 1, "name": "Oxidation"}, {"id": 3, "name": "Reduction"}], "materialComponents": [{"percentageAmount": "58.8000", "isAdditional": false, "material": {"id": 16050, "name": "Neph Sye A270", "isAnalysis": false, "isPrimitive": true, "isPrivate": false, "isArchived": true, "materialStateId": 2, "analysis": {"percentageAnalysis": {"SiO2": "60.2000", "Al2O3": "23.6000", "Na2O": "10.4000", "K2O": "4.8500", "MgO": "0.0200", "CaO": "0.3900", "Fe2O3": "0.0800", "loi": "0.5000"}, "umfAnalysis": {"SiO2": "4.4188", "Al2O3": "1.0208", "Na2O": "0.7401", "K2O": "0.2271", "MgO": "0.0022", "CaO": "0.0307", "Fe2O3": "0.0022", "SiO2Al2O3Ratio": "4.3287", "R2OTotal": "0.9671", "ROTotal": "0.0329"}, "xUmfAnalysis": {"SiO2": "4.4091", "Al2O3": "1.0186", "Na2O": "0.7384", "K2O": "0.2266", "MgO": "0.0022", "CaO": "0.0306", "Fe2O3": "0.0022", "SiO2Al2O3Ratio": "4.3287", "SiO2xAl2O3Ratio": "4.3287", "xAl2O3": "1.0186", "R2OTotal": "0.9650", "ROTotal": "0.0350"}, "molPercentageAnalysis": {"SiO2": "68.5954", "Al2O3": "15.8468", "Na2O": "11.4882", "K2O": "3.5251", "MgO": "0.0340", "CaO": "0.4762", "Fe2O3": "0.0343"}, "formulaAnalysis": {"SiO2": "4.4188", "Al2O3": "1.0208", "Na2O": "0.7401", "K2O": "0.2271", "MgO": "0.0022", "CaO": "0.0307", "Fe2O3": "0.0022"}, "thermalExpansion": "9.3351", "weight": "0.0000", "oxideWeight": "439.0088"}, "thumbnail": {"id": 24171, "materialId": 16050, "title": null, "filename": "16050.5edd51cde24b6.jpg", "createdByUserId": 8949, "createdAtDiff": "4 years ago"}}}, {"percentageAmount": "21.6000", "isAdditional": false, "material": {"id": 15062, "name": "Barium Carbonate", "isAnalysis": false, "isPrimitive": true, "isPrivate": false, "isArchived": true, "materialStateId": 2, "analysis": {"percentageAnalysis": {"BaO": "77.6600", "loi": "22.3400"}, "umfAnalysis": {"BaO": "1.0000", "SiO2Al2O3Ratio": "0.0000", "R2OTotal": "0.0000", "ROTotal": "1.0000"}, "xUmfAnalysis": {"BaO": "1.0000", "SiO2Al2O3Ratio": "0.0000", "SiO2xAl2O3Ratio": null, "xAl2O3": null, "R2OTotal": "0.0000", "ROTotal": "1.0000"}, "molPercentageAnalysis": {"BaO": "100.0000"}, "formulaAnalysis": {"BaO": "1.0000"}, "thermalExpansion": "12.9000", "weight": "153.3000", "oxideWeight": "153.3271"}, "thumbnail": {"id": 4881, "materialId": 15062, "title": "", "filename": "15062.5a6a6a1f3f446.jpg", "createdByUserId": 1, "createdAtDiff": "6 years ago"}}}, {"percentageAmount": "7.3000", "isAdditional": false, "material": {"id": 15298, "name": "Kentucky OM #4 Ball Clay", "isAnalysis": false, "isPrimitive": true, "isPrivate": false, "isArchived": true, "materialStateId": 2, "analysis": {"percentageAnalysis": {"SiO2": "55.1983", "Al2O3": "27.8995", "Na2O": "0.3002", "K2O": "1.0001", "MgO": "0.4003", "CaO": "0.3008", "TiO2": "1.1998", "Fe2O3": "1.1011", "loi": "12.6000"}, "umfAnalysis": {"SiO2": "29.8688", "Al2O3": "8.8965", "Na2O": "0.1575", "K2O": "0.3452", "MgO": "0.3229", "CaO": "0.1744", "TiO2": "0.4884", "Fe2O3": "0.2242", "SiO2Al2O3Ratio": "3.3574", "R2OTotal": "0.5027", "ROTotal": "0.4973"}, "xUmfAnalysis": {"SiO2": "24.3989", "Al2O3": "7.2673", "Na2O": "0.1286", "K2O": "0.2820", "MgO": "0.2638", "CaO": "0.1425", "TiO2": "0.3990", "Fe2O3": "0.1831", "SiO2Al2O3Ratio": "3.3574", "SiO2xAl2O3Ratio": "3.1826", "xAl2O3": "7.6663", "R2OTotal": "0.4106", "ROTotal": "0.5894"}, "molPercentageAnalysis": {"SiO2": "73.7903", "Al2O3": "21.9787", "Na2O": "0.3891", "K2O": "0.8528", "MgO": "0.7978", "CaO": "0.4309", "TiO2": "1.2067", "Fe2O3": "0.5539"}, "formulaAnalysis": {"SiO2": "3.3574", "Al2O3": "1.0000", "Na2O": "0.0177", "K2O": "0.0388", "MgO": "0.0363", "CaO": "0.0196", "TiO2": "0.0549", "Fe2O3": "0.0252"}, "thermalExpansion": "5.1512", "weight": "0.0000", "oxideWeight": "319.4115"}, "thumbnail": {"id": 4975, "materialId": 15298, "title": "", "filename": "15298.5a6ba4e33fc0c.jpg", "createdByUserId": 1, "createdAtDiff": "6 years ago"}}}, {"percentageAmount": "5.9000", "isAdditional": false, "material": {"id": 15400, "name": "Silica", "isAnalysis": false, "isPrimitive": true, "isPrivate": false, "isArchived": true, "materialStateId": 2, "analysis": {"percentageAnalysis": {"SiO2": "100.0000", "loi": "0.0000"}, "umfAnalysis": {"SiO2Al2O3Ratio": "0.0000", "R2OTotal": "0.0000", "ROTotal": "0.0000"}, "xUmfAnalysis": {"SiO2Al2O3Ratio": "0.0000", "SiO2xAl2O3Ratio": null, "xAl2O3": null, "R2OTotal": "0.0000", "ROTotal": "0.0000"}, "molPercentageAnalysis": {"SiO2": "100.0000"}, "formulaAnalysis": {"SiO2": "1.0000"}, "thermalExpansion": "3.5000", "weight": "60.1000", "oxideWeight": "60.0844"}, "thumbnail": {"id": 4900, "materialId": 15400, "title": "", "filename": "15400.5a6a6c135b2e7.jpg", "createdByUserId": 1, "createdAtDiff": "6 years ago"}}}, {"percentageAmount": "4.4000", "isAdditional": false, "material": {"id": 15323, "name": "Lithium Carbonate", "isAnalysis": false, "isPrimitive": true, "isPrivate": false, "isArchived": true, "materialStateId": 2, "analysis": {"percentageAnalysis": {"Li2O": "40.7400", "loi": "59.2600"}, "umfAnalysis": {"Li2O": "1.0000", "SiO2Al2O3Ratio": "0.0000", "R2OTotal": "1.0000", "ROTotal": "0.0000"}, "xUmfAnalysis": {"Li2O": "1.0000", "SiO2Al2O3Ratio": "0.0000", "SiO2xAl2O3Ratio": null, "xAl2O3": null, "R2OTotal": "1.0000", "ROTotal": "0.0000"}, "molPercentageAnalysis": {"Li2O": "100.0000"}, "formulaAnalysis": {"Li2O": "1.0000"}, "thermalExpansion": "6.8000", "weight": "0.0000", "oxideWeight": "29.8818"}, "thumbnail": {"id": 16818, "materialId": 15323, "title": null, "filename": "15323.5de7cfcfa101e.jpg", "createdByUserId": 7, "createdAtDiff": "4 years ago"}}}, {"percentageAmount": "2.0000", "isAdditional": false, "material": {"id": 15072, "name": "Bentonite", "isAnalysis": false, "isPrimitive": true, "isPrivate": false, "isArchived": true, "materialStateId": 2, "analysis": {"percentageAnalysis": {"SiO2": "59.3295", "Al2O3": "20.1153", "Na2O": "3.0194", "K2O": "1.0064", "MgO": "2.0096", "CaO": "1.0057", "Fe2O3": "3.5140", "loi": "10.0000"}, "umfAnalysis": {"SiO2": "7.7630", "Al2O3": "1.5510", "Na2O": "0.3830", "K2O": "0.0840", "MgO": "0.3920", "CaO": "0.1410", "Fe2O3": "0.1730", "SiO2Al2O3Ratio": "5.0051", "R2OTotal": "0.4670", "ROTotal": "0.5330"}, "xUmfAnalysis": {"SiO2": "6.6181", "Al2O3": "1.3223", "Na2O": "0.3265", "K2O": "0.0716", "MgO": "0.3342", "CaO": "0.1202", "Fe2O3": "0.1475", "SiO2Al2O3Ratio": "5.0051", "SiO2xAl2O3Ratio": "5.0051", "xAl2O3": "1.3223", "R2OTotal": "0.3981", "ROTotal": "0.6019"}, "molPercentageAnalysis": {"SiO2": "74.0248", "Al2O3": "14.7899", "Na2O": "3.6522", "K2O": "0.8010", "MgO": "3.7380", "CaO": "1.3445", "Fe2O3": "1.6497"}, "formulaAnalysis": {"SiO2": "5.0051", "Al2O3": "1.0000", "Na2O": "0.2469", "K2O": "0.0542", "MgO": "0.2527", "CaO": "0.0909", "Fe2O3": "0.1115"}, "thermalExpansion": "6.0953", "weight": "0.0000", "oxideWeight": "707.5601"}, "thumbnail": {"id": 4882, "materialId": 15072, "title": "", "filename": "15072.5a6a6a3c01481.jpg", "createdByUserId": 1, "createdAtDiff": "6 years ago"}}}, {"percentageAmount": "6.9000", "isAdditional": true, "material": {"id": 15483, "name": "Stain", "isAnalysis": false, "isPrimitive": true, "isPrivate": false, "isArchived": true, "materialStateId": 2, "analysis": {"percentageAnalysis": {"loi": "0.0000"}, "umfAnalysis": {"SiO2Al2O3Ratio": "0.0000", "R2OTotal": "0.0000", "ROTotal": "0.0000"}, "xUmfAnalysis": {"SiO2Al2O3Ratio": "0.0000", "SiO2xAl2O3Ratio": null, "xAl2O3": null, "R2OTotal": "0.0000", "ROTotal": "0.0000"}, "molPercentageAnalysis": [], "formulaAnalysis": [], "thermalExpansion": "0.0000", "weight": "0.0000", "oxideWeight": "0.0000"}, "thumbnail": {"id": 13952, "materialId": 15483, "title": "Various Stains", "filename": "15483.5d3e4f21ca36f.jpg", "createdByUserId": 7, "createdAtDiff": "5 years ago"}}}], "analysis": {"percentageAnalysis": {"SiO2": "43.5114", "Al2O3": "15.2626", "Li2O": "1.6769", "Na2O": "5.7975", "K2O": "2.7549", "MgO": "0.0759", "CaO": "0.2539", "BaO": "15.6918", "TiO2": "0.0819", "Fe2O3": "0.1849", "loi": "8.2757"}, "umfAnalysis": {"SiO2": "2.5174", "Al2O3": "0.5204", "Li2O": "0.1951", "Na2O": "0.3252", "K2O": "0.1017", "MgO": "0.0065", "CaO": "0.0157", "BaO": "0.3558", "TiO2": "0.0036", "Fe2O3": "0.0040", "SiO2Al2O3Ratio": "4.8377", "R2OTotal": "0.6219", "ROTotal": "0.3781"}, "xUmfAnalysis": {"SiO2": "2.5073", "Al2O3": "0.5183", "Li2O": "0.1943", "Na2O": "0.3239", "K2O": "0.1013", "MgO": "0.0065", "CaO": "0.0157", "BaO": "0.3544", "TiO2": "0.0036", "Fe2O3": "0.0040", "SiO2Al2O3Ratio": "4.8377", "SiO2xAl2O3Ratio": "4.8048", "xAl2O3": "0.5218", "R2OTotal": "0.6194", "ROTotal": "0.3806"}, "molPercentageAnalysis": {"SiO2": "62.2296", "Al2O3": "12.8634", "Li2O": "4.8224", "Na2O": "8.0381", "K2O": "2.5132", "MgO": "0.1619", "CaO": "0.3890", "BaO": "8.7946", "TiO2": "0.0882", "Fe2O3": "0.0995"}, "formulaAnalysis": {"SiO2": "0.7242", "Al2O3": "0.1497", "Li2O": "0.0561", "Na2O": "0.0935", "K2O": "0.0292", "MgO": "0.0019", "CaO": "0.0045", "BaO": "0.1023", "TiO2": "0.0010", "Fe2O3": "0.0012"}, "thermalExpansion": "9.2068", "weight": null, "oxideWeight": null}, "images": [{"id": 9597, "materialId": 29842, "title": "Stokes C", "description": "", "ortonConeId": 30, "atmosphereId": 1, "is_color_searchable": 1, "dominantRgbR": 150, "dominantRgbG": 140, "dominantRgbB": 89, "dominantHexColor": "968c59", "secondaryRgbR": 13, "secondaryRgbG": 13, "secondaryRgbB": 13, "secondaryHexColor": "0d0d0d", "filename": "29842.5c5c4d04eae5d.jpg", "isPrivate": false, "createdByUser": {"id": 7337, "name": "Alfred Grinding Room - Glazes", "locale": "en", "profile": {"username": "alfredgrindingroom", "title": null, "description": null, "countryId": null, "countryName": null, "url": "http://www.alfredgrindingroom.com/", "pinterest": null, "facebook": null, "instagram": null, "artaxis": null, "paypal": null}, "is_patron": 1, "material_image_count": 345, "createdAt": "2019-02-07T13:46:17", "updatedAt": "2022-04-14T18:56:35"}, "createdByUserId": 7337, "createdAt": "2019-02-07T15:21:41", "createdAtHuman": "07 Feb 2019", "createdAtDiff": "5 years ago", "updatedAt": "2019-02-07T15:21:41", "updatedAtHuman": "07 Feb 2019", "updatedAtDiff": "5 years ago"}, {"id": 9598, "materialId": 29842, "title": "Stokes C", "description": "", "ortonConeId": 30, "atmosphereId": 3, "is_color_searchable": 1, "dominantRgbR": 67, "dominantRgbG": 68, "dominantRgbB": 61, "dominantHexColor": "43443d", "secondaryRgbR": 157, "secondaryRgbG": 161, "secondaryRgbB": 142, "secondaryHexColor": "9da18e", "filename": "29842.5c5c4d16cb40e.jpg", "isPrivate": false, "createdByUser": {"id": 7337, "name": "Alfred Grinding Room - Glazes", "locale": "en", "profile": {"username": "alfredgrindingroom", "title": null, "description": null, "countryId": null, "countryName": null, "url": "http://www.alfredgrindingroom.com/", "pinterest": null, "facebook": null, "instagram": null, "artaxis": null, "paypal": null}, "is_patron": 1, "material_image_count": 345, "createdAt": "2019-02-07T13:46:17", "updatedAt": "2022-04-14T18:56:35"}, "createdByUserId": 7337, "createdAt": "2019-02-07T15:21:59", "createdAtHuman": "07 Feb 2019", "createdAtDiff": "5 years ago", "updatedAt": "2019-02-07T15:21:59", "updatedAtHuman": "07 Feb 2019", "updatedAtDiff": "5 years ago"}], "thumbnail": {"id": 9597, "materialId": 29842, "title": "Stokes C", "description": "", "ortonConeId": 30, "atmosphereId": 1, "is_color_searchable": 1, "dominantRgbR": 150, "dominantRgbG": 140, "dominantRgbB": 89, "dominantHexColor": "968c59", "secondaryRgbR": 13, "secondaryRgbG": 13, "secondaryRgbB": 13, "secondaryHexColor": "0d0d0d", "filename": "29842.5c5c4d04eae5d.jpg", "isPrivate": false, "createdByUser": {"id": 7337, "name": "Alfred Grinding Room - Glazes", "locale": "en", "profile": {"username": "alfredgrindingroom", "title": null, "description": null, "countryId": null, "countryName": null, "url": "http://www.alfredgrindingroom.com/", "pinterest": null, "facebook": null, "instagram": null, "artaxis": null, "paypal": null}, "is_patron": 1, "material_image_count": 345, "createdAt": "2019-02-07T13:46:17", "updatedAt": "2022-04-14T18:56:35"}, "createdByUserId": 7337, "createdAt": "2019-02-07T15:21:41", "createdAtHuman": "07 Feb 2019", "createdAtDiff": "5 years ago", "updatedAt": "2019-02-07T15:21:41", "updatedAtHuman": "07 Feb 2019", "updatedAtDiff": "5 years ago"}, "reviews": [], "comments": [{"id": 9334, "parentId": null, "materialId": 29842, "userId": 20086, "content": " I am just testing this glaze (stoke C) and it is actively bubbling from adding water to it. I don\u2019t believe I have seen this happen before. Can someone shed some light? \nThanks", "filename": null, "user": {"id": 20086, "name": "Sylvia Pendl", "locale": "en", "profile": {"username": null, "title": null, "description": null, "countryId": null, "countryName": null, "url": null, "pinterest": null, "facebook": null, "instagram": null, "artaxis": null, "paypal": null}, "is_patron": 0, "material_image_count": 0, "createdAt": "2020-10-24T20:23:03", "updatedAt": "2023-11-26T03:16:20"}, "createdAt": "2021-06-21T00:46:44", "createdAtHuman": "21 Jun 2021", "createdAtDiff": "3 years ago", "updatedAt": "2021-06-21T00:47:14", "updatedAtHuman": "21 Jun 2021", "updatedAtDiff": "3 years ago"}], "translations": [{"id": 24380, "name": "Stokes C", "other_names": null, "description": "Mason Stain - Vanadium #6404\n\n*Do not use in glazes intended for use with food. ", "locale": "en"}], "createdByUser": {"id": 7337, "name": "Alfred Grinding Room - Glazes", "locale": "en", "profile": {"username": "alfredgrindingroom", "title": null, "description": null, "countryId": null, "countryName": null, "url": "http://www.alfredgrindingroom.com/", "pinterest": null, "facebook": null, "instagram": null, "artaxis": null, "paypal": null}, "is_patron": 1, "material_image_count": 345, "createdAt": "2019-02-07T13:46:17", "updatedAt": "2022-04-14T18:56:35"}}}