{"data": {"id": 29844, "parentId": null, "children": [], "siblings": [], "revisionParentId": null, "revisionChildren": [], "name": "Translucent Base", "otherNames": null, "formula": null, "description": null, "isAnalysis": false, "isPrimitive": false, "isArchived": true, "default_locale": "en", "materialStateId": 2, "materialStateName": "Production", "materialTypeId": 470, "baseTypeId": 460, "materialType": {"id": 470, "parentMaterialType": {"id": 460, "parentMaterialType": {"id": 100}}}, "fromOrtonConeId": 28, "fromOrtonConeName": "5", "toOrtonConeId": 30, "toOrtonConeName": "6", "surfaceTypeId": 9, "surfaceTypeName": "Semi-glossy", "transparencyTypeId": 3, "transparencyTypeName": "Translucent", "kilnSchedule": null, "waterAmount": null, "specificGravity": null, "thumbnailId": 9601, "ratingTotal": 0, "ratingNumber": 0, "ratingAverage": "0.00", "isPrivate": false, "createdByUserId": 7337, "createdAt": "2019-02-07T15:28:13", "createdAtHuman": "07 Feb 2019", "createdAtDiff": "5 years ago", "updatedAt": "2023-12-08T22:18:38", "updatedAtHuman": "08 Dec 2023", "updatedAtDiff": "10 months ago", "materialComponentTotalAmount": 100, "atmospheres": [{"id": 1, "name": "Oxidation"}, {"id": 3, "name": "Reduction"}], "materialComponents": [{"percentageAmount": "44.0000", "isAdditional": false, "material": {"id": 16050, "name": "Neph Sye A270", "isAnalysis": false, "isPrimitive": true, "isPrivate": false, "isArchived": true, "materialStateId": 2, "analysis": {"percentageAnalysis": {"SiO2": "60.2000", "Al2O3": "23.6000", "Na2O": "10.4000", "K2O": "4.8500", "MgO": "0.0200", "CaO": "0.3900", "Fe2O3": "0.0800", "loi": "0.5000"}, "umfAnalysis": {"SiO2": "4.4188", "Al2O3": "1.0208", "Na2O": "0.7401", "K2O": "0.2271", "MgO": "0.0022", "CaO": "0.0307", "Fe2O3": "0.0022", "SiO2Al2O3Ratio": "4.3287", "R2OTotal": "0.9671", "ROTotal": "0.0329"}, "xUmfAnalysis": {"SiO2": "4.4091", "Al2O3": "1.0186", "Na2O": "0.7384", "K2O": "0.2266", "MgO": "0.0022", "CaO": "0.0306", "Fe2O3": "0.0022", "SiO2Al2O3Ratio": "4.3287", "SiO2xAl2O3Ratio": "4.3287", "xAl2O3": "1.0186", "R2OTotal": "0.9650", "ROTotal": "0.0350"}, "molPercentageAnalysis": {"SiO2": "68.5954", "Al2O3": "15.8468", "Na2O": "11.4882", "K2O": "3.5251", "MgO": "0.0340", "CaO": "0.4762", "Fe2O3": "0.0343"}, "formulaAnalysis": {"SiO2": "4.4188", "Al2O3": "1.0208", "Na2O": "0.7401", "K2O": "0.2271", "MgO": "0.0022", "CaO": "0.0307", "Fe2O3": "0.0022"}, "thermalExpansion": "9.3351", "weight": "0.0000", "oxideWeight": "439.0088"}, "thumbnail": {"id": 24171, "materialId": 16050, "title": null, "filename": "16050.5edd51cde24b6.jpg", "createdByUserId": 8949, "createdAtDiff": "4 years ago"}}}, {"percentageAmount": "28.0000", "isAdditional": false, "material": {"id": 15400, "name": "Silica", "isAnalysis": false, "isPrimitive": true, "isPrivate": false, "isArchived": true, "materialStateId": 2, "analysis": {"percentageAnalysis": {"SiO2": "100.0000", "loi": "0.0000"}, "umfAnalysis": {"SiO2Al2O3Ratio": "0.0000", "R2OTotal": "0.0000", "ROTotal": "0.0000"}, "xUmfAnalysis": {"SiO2Al2O3Ratio": "0.0000", "SiO2xAl2O3Ratio": null, "xAl2O3": null, "R2OTotal": "0.0000", "ROTotal": "0.0000"}, "molPercentageAnalysis": {"SiO2": "100.0000"}, "formulaAnalysis": {"SiO2": "1.0000"}, "thermalExpansion": "3.5000", "weight": "60.1000", "oxideWeight": "60.0844"}, "thumbnail": {"id": 4900, "materialId": 15400, "title": "", "filename": "15400.5a6a6c135b2e7.jpg", "createdByUserId": 1, "createdAtDiff": "6 years ago"}}}, {"percentageAmount": "13.0000", "isAdditional": false, "material": {"id": 15467, "name": "Zinc Oxide", "isAnalysis": false, "isPrimitive": true, "isPrivate": false, "isArchived": true, "materialStateId": 2, "analysis": {"percentageAnalysis": {"ZnO": "100.0000", "loi": "0.0000"}, "umfAnalysis": {"ZnO": "1.0000", "SiO2Al2O3Ratio": "0.0000", "R2OTotal": "0.0000", "ROTotal": "1.0000"}, "xUmfAnalysis": {"ZnO": "1.0000", "SiO2Al2O3Ratio": "0.0000", "SiO2xAl2O3Ratio": null, "xAl2O3": null, "R2OTotal": "0.0000", "ROTotal": "1.0000"}, "molPercentageAnalysis": {"ZnO": "100.0000"}, "formulaAnalysis": {"ZnO": "1.0000"}, "thermalExpansion": "9.4000", "weight": "81.4000", "oxideWeight": "81.3814"}, "thumbnail": {"id": 4913, "materialId": 15467, "title": "", "filename": "15467.5a6a6d5075b6c.jpg", "createdByUserId": 1, "createdAtDiff": "6 years ago"}}}, {"percentageAmount": "8.0000", "isAdditional": false, "material": {"id": 15137, "name": "EP Kaolin", "isAnalysis": false, "isPrimitive": true, "isPrivate": false, "isArchived": true, "materialStateId": 2, "analysis": {"percentageAnalysis": {"SiO2": "45.7270", "Al2O3": "37.3603", "Na2O": "0.0681", "K2O": "0.3451", "MgO": "0.1034", "CaO": "0.1849", "P2O5": "0.2601", "TiO2": "0.3804", "Fe2O3": "0.7607", "loi": "14.8100"}, "umfAnalysis": {"SiO2": "71.6261", "Al2O3": "34.4859", "Na2O": "0.1034", "K2O": "0.3448", "MgO": "0.2415", "CaO": "0.3103", "P2O5": "0.1725", "TiO2": "0.4483", "Fe2O3": "0.4483", "SiO2Al2O3Ratio": "2.0770", "R2OTotal": "0.4482", "ROTotal": "0.5518"}, "xUmfAnalysis": {"SiO2": "49.4540", "Al2O3": "23.8106", "Na2O": "0.0714", "K2O": "0.2381", "MgO": "0.1667", "CaO": "0.2143", "P2O5": "0.1191", "TiO2": "0.3095", "Fe2O3": "0.3096", "SiO2Al2O3Ratio": "2.0770", "SiO2xAl2O3Ratio": "2.0503", "xAl2O3": "24.1202", "R2OTotal": "0.3095", "ROTotal": "0.6905"}, "molPercentageAnalysis": {"SiO2": "66.2095", "Al2O3": "31.8779", "Na2O": "0.0956", "K2O": "0.3187", "MgO": "0.2232", "CaO": "0.2869", "P2O5": "0.1594", "TiO2": "0.4144", "Fe2O3": "0.4144"}, "formulaAnalysis": {"SiO2": "2.0770", "Al2O3": "1.0000", "Na2O": "0.0030", "K2O": "0.0100", "MgO": "0.0070", "CaO": "0.0090", "P2O5": "0.0050", "TiO2": "0.0130", "Fe2O3": "0.0130"}, "thermalExpansion": "5.0178", "weight": "0.0000", "oxideWeight": "232.4953"}, "thumbnail": {"id": 4952, "materialId": 15137, "title": "", "filename": "15137.5a6ba32627dcd.jpg", "createdByUserId": 1, "createdAtDiff": "6 years ago"}}}, {"percentageAmount": "7.0000", "isAdditional": false, "material": {"id": 15457, "name": "Whiting", "isAnalysis": false, "isPrimitive": true, "isPrivate": false, "isArchived": true, "materialStateId": 2, "analysis": {"percentageAnalysis": {"CaO": "56.1000", "loi": "43.9000"}, "umfAnalysis": {"CaO": "1.0000", "SiO2Al2O3Ratio": "0.0000", "R2OTotal": "0.0000", "ROTotal": "1.0000"}, "xUmfAnalysis": {"CaO": "1.0000", "SiO2Al2O3Ratio": "0.0000", "SiO2xAl2O3Ratio": null, "xAl2O3": null, "R2OTotal": "0.0000", "ROTotal": "1.0000"}, "molPercentageAnalysis": {"CaO": "100.0000"}, "formulaAnalysis": {"CaO": "1.0000"}, "thermalExpansion": "14.8000", "weight": "99.9590", "oxideWeight": "56.0770"}, "thumbnail": {"id": 16835, "materialId": 15457, "title": null, "filename": "15457.5de7d47035ff4.jpg", "createdByUserId": 7, "createdAtDiff": "4 years ago"}}}], "analysis": {"percentageAnalysis": {"SiO2": "58.1462", "Al2O3": "13.3728", "Na2O": "4.5814", "K2O": "2.1616", "MgO": "0.0171", "CaO": "4.1134", "P2O5": "0.0208", "TiO2": "0.0304", "Fe2O3": "0.0961", "ZnO": "13.0000", "loi": "4.4778"}, "umfAnalysis": {"SiO2": "2.9293", "Al2O3": "0.3970", "Na2O": "0.2237", "K2O": "0.0695", "MgO": "0.0013", "CaO": "0.2220", "P2O5": "0.0004", "TiO2": "0.0012", "Fe2O3": "0.0018", "ZnO": "0.4835", "SiO2Al2O3Ratio": "7.3785", "R2OTotal": "0.2932", "ROTotal": "0.7068"}, "xUmfAnalysis": {"SiO2": "2.9239", "Al2O3": "0.3963", "Na2O": "0.2233", "K2O": "0.0693", "MgO": "0.0013", "CaO": "0.2216", "P2O5": "0.0004", "TiO2": "0.0012", "Fe2O3": "0.0018", "ZnO": "0.4826", "SiO2Al2O3Ratio": "7.3785", "SiO2xAl2O3Ratio": "7.3571", "xAl2O3": "0.3974", "R2OTotal": "0.2927", "ROTotal": "0.7073"}, "molPercentageAnalysis": {"SiO2": "67.6553", "Al2O3": "9.1693", "Na2O": "5.1678", "K2O": "1.6043", "MgO": "0.0296", "CaO": "5.1282", "P2O5": "0.0102", "TiO2": "0.0266", "Fe2O3": "0.0421", "ZnO": "11.1666"}, "formulaAnalysis": {"SiO2": "0.9677", "Al2O3": "0.1312", "Na2O": "0.0739", "K2O": "0.0229", "MgO": "0.0004", "CaO": "0.0734", "P2O5": "0.0001", "TiO2": "0.0004", "Fe2O3": "0.0006", "ZnO": "0.1597"}, "thermalExpansion": "7.5505", "weight": null, "oxideWeight": null}, "images": [{"id": 9601, "materialId": 29844, "title": "Translucent Base", "description": "", "ortonConeId": 30, "atmosphereId": 1, "is_color_searchable": 1, "dominantRgbR": 162, "dominantRgbG": 161, "dominantRgbB": 162, "dominantHexColor": "a2a1a2", "secondaryRgbR": 10, "secondaryRgbG": 11, "secondaryRgbB": 11, "secondaryHexColor": "0a0b0b", "filename": "29844.5c5c4eeb26cfc.jpg", "isPrivate": false, "createdByUser": {"id": 7337, "name": "Alfred Grinding Room - Glazes", "locale": "en", "profile": {"username": "alfredgrindingroom", "title": null, "description": null, "countryId": null, "countryName": null, "url": "http://www.alfredgrindingroom.com/", "pinterest": null, "facebook": null, "instagram": null, "artaxis": null, "paypal": null}, "is_patron": 1, "material_image_count": 345, "createdAt": "2019-02-07T13:46:17", "updatedAt": "2022-04-14T18:56:35"}, "createdByUserId": 7337, "createdAt": "2019-02-07T15:29:47", "createdAtHuman": "07 Feb 2019", "createdAtDiff": "5 years ago", "updatedAt": "2019-02-07T15:29:47", "updatedAtHuman": "07 Feb 2019", "updatedAtDiff": "5 years ago"}, {"id": 9602, "materialId": 29844, "title": "Translucent Base", "description": "", "ortonConeId": 30, "atmosphereId": 3, "is_color_searchable": 1, "dominantRgbR": 129, "dominantRgbG": 127, "dominantRgbB": 131, "dominantHexColor": "817f83", "secondaryRgbR": 11, "secondaryRgbG": 11, "secondaryRgbB": 11, "secondaryHexColor": "0b0b0b", "filename": "29844.5c5c4f1af2ca1.jpg", "isPrivate": false, "createdByUser": {"id": 7337, "name": "Alfred Grinding Room - Glazes", "locale": "en", "profile": {"username": "alfredgrindingroom", "title": null, "description": null, "countryId": null, "countryName": null, "url": "http://www.alfredgrindingroom.com/", "pinterest": null, "facebook": null, "instagram": null, "artaxis": null, "paypal": null}, "is_patron": 1, "material_image_count": 345, "createdAt": "2019-02-07T13:46:17", "updatedAt": "2022-04-14T18:56:35"}, "createdByUserId": 7337, "createdAt": "2019-02-07T15:30:35", "createdAtHuman": "07 Feb 2019", "createdAtDiff": "5 years ago", "updatedAt": "2019-02-07T15:30:35", "updatedAtHuman": "07 Feb 2019", "updatedAtDiff": "5 years ago"}, {"id": 78270, "materialId": 29844, "title": null, "description": null, "ortonConeId": 31, "atmosphereId": 1, "is_color_searchable": 1, "dominantRgbR": 168, "dominantRgbG": 157, "dominantRgbB": 122, "dominantHexColor": "a89d7a", "secondaryRgbR": 140, "secondaryRgbG": 130, "secondaryRgbB": 91, "secondaryHexColor": "8c825b", "filename": "29844.63712a1297290.jpg", "isPrivate": false, "createdByUser": {"id": 6599, "name": "HP Bloomer IV", "locale": "en", "profile": {"username": "bloomerceramics", "title": null, "description": null, "avatar": "/uploads/profiles/94/xs_4494.5fea18520e50e.jpg", "countryId": null, "countryName": null, "url": "www.hpbloomer.com", "pinterest": "HP Bloomer", "facebook": null, "instagram": "hpbloomer", "artaxis": "hp-bloomer", "paypal": "https://www.paypal.com/donate?business=EV5T5GPXQG2EL&currency_code=USD"}, "is_patron": 0, "material_image_count": 1556, "createdAt": "2018-11-16T03:53:12", "updatedAt": "2024-09-07T17:32:59"}, "createdByUserId": 6599, "createdAt": "2022-11-13T17:32:03", "createdAtHuman": "13 Nov 2022", "createdAtDiff": "1 year ago", "updatedAt": "2022-11-13T17:32:03", "updatedAtHuman": "13 Nov 2022", "updatedAtDiff": "1 year ago"}, {"id": 91022, "materialId": 29844, "title": "looks like a really nice satin, more on glossier side. testing with colorants soon.", "description": null, "ortonConeId": 28, "atmosphereId": 1, "is_color_searchable": 1, "dominantRgbR": 120, "dominantRgbG": 120, "dominantRgbB": 115, "dominantHexColor": "787873", "secondaryRgbR": 216, "secondaryRgbG": 216, "secondaryRgbB": 210, "secondaryHexColor": "d8d8d2", "filename": "29844.6427d687e1313.jpg", "isPrivate": false, "createdByUser": {"id": 46946, "name": "Rist", "locale": "en", "profile": {"username": "rist", "title": null, "description": "B.F.A. in Ceramics from Cleveland Institute of Art\nM.S. in Anthropology from Minnesota State University\nM.A. Ceramics - In progress, Minnesota State University", "avatar": "/uploads/profiles/07/xs_7007.641c8e920a39d.png", "countryId": null, "countryName": null, "url": null, "pinterest": null, "facebook": null, "instagram": "rist.art", "artaxis": null, "paypal": "https://www.paypal.com/donate/?business=FMAPB8BCDTS9A&no_recurring=0&currency_code=USD"}, "is_patron": 0, "material_image_count": 147, "createdAt": "2023-03-21T04:10:21", "updatedAt": "2024-03-21T16:40:00"}, "createdByUserId": 46946, "createdAt": "2023-04-01T07:00:25", "createdAtHuman": "01 Apr 2023", "createdAtDiff": "1 year ago", "updatedAt": "2023-04-01T07:00:25", "updatedAtHuman": "01 Apr 2023", "updatedAtDiff": "1 year ago"}], "thumbnail": {"id": 9601, "materialId": 29844, "title": "Translucent Base", "description": "", "ortonConeId": 30, "atmosphereId": 1, "is_color_searchable": 1, "dominantRgbR": 162, "dominantRgbG": 161, "dominantRgbB": 162, "dominantHexColor": "a2a1a2", "secondaryRgbR": 10, "secondaryRgbG": 11, "secondaryRgbB": 11, "secondaryHexColor": "0a0b0b", "filename": "29844.5c5c4eeb26cfc.jpg", "isPrivate": false, "createdByUser": {"id": 7337, "name": "Alfred Grinding Room - Glazes", "locale": "en", "profile": {"username": "alfredgrindingroom", "title": null, "description": null, "countryId": null, "countryName": null, "url": "http://www.alfredgrindingroom.com/", "pinterest": null, "facebook": null, "instagram": null, "artaxis": null, "paypal": null}, "is_patron": 1, "material_image_count": 345, "createdAt": "2019-02-07T13:46:17", "updatedAt": "2022-04-14T18:56:35"}, "createdByUserId": 7337, "createdAt": "2019-02-07T15:29:47", "createdAtHuman": "07 Feb 2019", "createdAtDiff": "5 years ago", "updatedAt": "2019-02-07T15:29:47", "updatedAtHuman": "07 Feb 2019", "updatedAtDiff": "5 years ago"}, "reviews": [], "comments": [{"id": 20483, "parentId": null, "materialId": 29844, "userId": 40371, "content": "Hi! Just wondering if this glaze has been tested with colorants.", "filename": null, "user": {"id": 40371, "name": "Alicia Ross", "locale": "en", "profile": null, "is_patron": 0, "material_image_count": 0, "createdAt": "2022-09-28T02:34:47", "updatedAt": "2023-04-22T20:58:53"}, "createdAt": "2023-12-08T22:18:38", "createdAtHuman": "08 Dec 2023", "createdAtDiff": "10 months ago", "updatedAt": "2023-12-08T22:18:38", "updatedAtHuman": "08 Dec 2023", "updatedAtDiff": "10 months ago"}], "translations": [{"id": 24382, "name": "Translucent Base", "other_names": null, "description": null, "locale": "en"}], "createdByUser": {"id": 7337, "name": "Alfred Grinding Room - Glazes", "locale": "en", "profile": {"username": "alfredgrindingroom", "title": null, "description": null, "countryId": null, "countryName": null, "url": "http://www.alfredgrindingroom.com/", "pinterest": null, "facebook": null, "instagram": null, "artaxis": null, "paypal": null}, "is_patron": 1, "material_image_count": 345, "createdAt": "2019-02-07T13:46:17", "updatedAt": "2022-04-14T18:56:35"}}}