{"data": {"id": 30866, "parentId": null, "children": [], "siblings": [], "revisionParentId": null, "revisionChildren": [], "name": "Choy Blue Celadon", "otherNames": null, "formula": null, "description": null, "isAnalysis": false, "isPrimitive": false, "isArchived": true, "default_locale": "en", "materialStateId": 2, "materialStateName": "Production", "materialTypeId": 510, "baseTypeId": 460, "materialType": {"id": 510, "parentMaterialType": {"id": 500, "parentMaterialType": {"id": 490, "parentMaterialType": {"id": 460, "parentMaterialType": {"id": 100}}}}}, "fromOrtonConeId": 33, "fromOrtonConeName": "9", "toOrtonConeId": 34, "toOrtonConeName": "10", "surfaceTypeId": 8, "surfaceTypeName": "Glossy", "kilnSchedule": null, "waterAmount": null, "specificGravity": null, "thumbnailId": 10083, "ratingTotal": 0, "ratingNumber": 0, "ratingAverage": "0.00", "isPrivate": false, "createdByUserId": 7337, "createdAt": "2019-02-19T14:04:01", "createdAtHuman": "19 Feb 2019", "createdAtDiff": "5 years ago", "updatedAt": "2023-11-30T07:04:07", "updatedAtHuman": "30 Nov 2023", "updatedAtDiff": "10 months ago", "materialComponentTotalAmount": 102, "atmospheres": [{"id": 1, "name": "Oxidation"}, {"id": 3, "name": "Reduction"}], "materialComponents": [{"percentageAmount": "50.0000", "isAdditional": false, "material": {"id": 15131, "name": "Custer Feldspar", "isAnalysis": false, "isPrimitive": true, "isPrivate": false, "isArchived": true, "materialStateId": 2, "analysis": {"percentageAnalysis": {"SiO2": "68.5000", "Al2O3": "17.0000", "Na2O": "3.0000", "K2O": "10.0000", "CaO": "0.3000", "Fe2O3": "0.1000", "loi": "0.3000"}, "umfAnalysis": {"SiO2": "7.1291", "Al2O3": "1.0426", "Na2O": "0.3027", "K2O": "0.6639", "CaO": "0.0335", "Fe2O3": "0.0039", "SiO2Al2O3Ratio": "6.8377", "R2OTotal": "0.9665", "ROTotal": "0.0335"}, "xUmfAnalysis": {"SiO2": "7.1013", "Al2O3": "1.0386", "Na2O": "0.3015", "K2O": "0.6613", "CaO": "0.0333", "Fe2O3": "0.0039", "SiO2Al2O3Ratio": "6.8377", "SiO2xAl2O3Ratio": "6.8377", "xAl2O3": "1.0386", "R2OTotal": "0.9628", "ROTotal": "0.0372"}, "molPercentageAnalysis": {"SiO2": "77.6960", "Al2O3": "11.3629", "Na2O": "3.2988", "K2O": "7.2351", "CaO": "0.3646", "Fe2O3": "0.0427"}, "formulaAnalysis": {"SiO2": "7.1291", "Al2O3": "1.0426", "Na2O": "0.3027", "K2O": "0.6639", "CaO": "0.0335", "Fe2O3": "0.0039"}, "thermalExpansion": "8.0853", "weight": "0.0000", "oxideWeight": "618.4544"}, "thumbnail": {"id": 4934, "materialId": 15131, "title": "", "filename": "15131.5a6ba1781bbce.jpg", "createdByUserId": 1, "createdAtDiff": "6 years ago"}}}, {"percentageAmount": "24.0000", "isAdditional": false, "material": {"id": 15400, "name": "Silica", "isAnalysis": false, "isPrimitive": true, "isPrivate": false, "isArchived": true, "materialStateId": 2, "analysis": {"percentageAnalysis": {"SiO2": "100.0000", "loi": "0.0000"}, "umfAnalysis": {"SiO2Al2O3Ratio": "0.0000", "R2OTotal": "0.0000", "ROTotal": "0.0000"}, "xUmfAnalysis": {"SiO2Al2O3Ratio": "0.0000", "SiO2xAl2O3Ratio": null, "xAl2O3": null, "R2OTotal": "0.0000", "ROTotal": "0.0000"}, "molPercentageAnalysis": {"SiO2": "100.0000"}, "formulaAnalysis": {"SiO2": "1.0000"}, "thermalExpansion": "3.5000", "weight": "60.1000", "oxideWeight": "60.0844"}, "thumbnail": {"id": 4900, "materialId": 15400, "title": "", "filename": "15400.5a6a6c135b2e7.jpg", "createdByUserId": 1, "createdAtDiff": "6 years ago"}}}, {"percentageAmount": "16.0000", "isAdditional": false, "material": {"id": 15062, "name": "Barium Carbonate", "isAnalysis": false, "isPrimitive": true, "isPrivate": false, "isArchived": true, "materialStateId": 2, "analysis": {"percentageAnalysis": {"BaO": "77.6600", "loi": "22.3400"}, "umfAnalysis": {"BaO": "1.0000", "SiO2Al2O3Ratio": "0.0000", "R2OTotal": "0.0000", "ROTotal": "1.0000"}, "xUmfAnalysis": {"BaO": "1.0000", "SiO2Al2O3Ratio": "0.0000", "SiO2xAl2O3Ratio": null, "xAl2O3": null, "R2OTotal": "0.0000", "ROTotal": "1.0000"}, "molPercentageAnalysis": {"BaO": "100.0000"}, "formulaAnalysis": {"BaO": "1.0000"}, "thermalExpansion": "12.9000", "weight": "153.3000", "oxideWeight": "153.3271"}, "thumbnail": {"id": 4881, "materialId": 15062, "title": "", "filename": "15062.5a6a6a1f3f446.jpg", "createdByUserId": 1, "createdAtDiff": "6 years ago"}}}, {"percentageAmount": "6.0000", "isAdditional": false, "material": {"id": 15457, "name": "Whiting", "isAnalysis": false, "isPrimitive": true, "isPrivate": false, "isArchived": true, "materialStateId": 2, "analysis": {"percentageAnalysis": {"CaO": "56.1000", "loi": "43.9000"}, "umfAnalysis": {"CaO": "1.0000", "SiO2Al2O3Ratio": "0.0000", "R2OTotal": "0.0000", "ROTotal": "1.0000"}, "xUmfAnalysis": {"CaO": "1.0000", "SiO2Al2O3Ratio": "0.0000", "SiO2xAl2O3Ratio": null, "xAl2O3": null, "R2OTotal": "0.0000", "ROTotal": "1.0000"}, "molPercentageAnalysis": {"CaO": "100.0000"}, "formulaAnalysis": {"CaO": "1.0000"}, "thermalExpansion": "14.8000", "weight": "99.9590", "oxideWeight": "56.0770"}, "thumbnail": {"id": 16835, "materialId": 15457, "title": null, "filename": "15457.5de7d47035ff4.jpg", "createdByUserId": 7, "createdAtDiff": "4 years ago"}}}, {"percentageAmount": "4.0000", "isAdditional": false, "material": {"id": 15137, "name": "EP Kaolin", "isAnalysis": false, "isPrimitive": true, "isPrivate": false, "isArchived": true, "materialStateId": 2, "analysis": {"percentageAnalysis": {"SiO2": "45.7270", "Al2O3": "37.3603", "Na2O": "0.0681", "K2O": "0.3451", "MgO": "0.1034", "CaO": "0.1849", "P2O5": "0.2601", "TiO2": "0.3804", "Fe2O3": "0.7607", "loi": "14.8100"}, "umfAnalysis": {"SiO2": "71.6261", "Al2O3": "34.4859", "Na2O": "0.1034", "K2O": "0.3448", "MgO": "0.2415", "CaO": "0.3103", "P2O5": "0.1725", "TiO2": "0.4483", "Fe2O3": "0.4483", "SiO2Al2O3Ratio": "2.0770", "R2OTotal": "0.4482", "ROTotal": "0.5518"}, "xUmfAnalysis": {"SiO2": "49.4540", "Al2O3": "23.8106", "Na2O": "0.0714", "K2O": "0.2381", "MgO": "0.1667", "CaO": "0.2143", "P2O5": "0.1191", "TiO2": "0.3095", "Fe2O3": "0.3096", "SiO2Al2O3Ratio": "2.0770", "SiO2xAl2O3Ratio": "2.0503", "xAl2O3": "24.1202", "R2OTotal": "0.3095", "ROTotal": "0.6905"}, "molPercentageAnalysis": {"SiO2": "66.2095", "Al2O3": "31.8779", "Na2O": "0.0956", "K2O": "0.3187", "MgO": "0.2232", "CaO": "0.2869", "P2O5": "0.1594", "TiO2": "0.4144", "Fe2O3": "0.4144"}, "formulaAnalysis": {"SiO2": "2.0770", "Al2O3": "1.0000", "Na2O": "0.0030", "K2O": "0.0100", "MgO": "0.0070", "CaO": "0.0090", "P2O5": "0.0050", "TiO2": "0.0130", "Fe2O3": "0.0130"}, "thermalExpansion": "5.0178", "weight": "0.0000", "oxideWeight": "232.4953"}, "thumbnail": {"id": 4952, "materialId": 15137, "title": "", "filename": "15137.5a6ba32627dcd.jpg", "createdByUserId": 1, "createdAtDiff": "6 years ago"}}}, {"percentageAmount": "2.0000", "isAdditional": true, "material": {"id": 15387, "name": "Red Iron Oxide", "isAnalysis": false, "isPrimitive": true, "isPrivate": false, "isArchived": true, "materialStateId": 2, "analysis": {"percentageAnalysis": {"Fe2O3": "95.0000", "loi": "5.0000"}, "umfAnalysis": {"SiO2Al2O3Ratio": "0.0000", "R2OTotal": "0.0000", "ROTotal": "0.0000"}, "xUmfAnalysis": {"Fe2O3": "1.0000", "SiO2Al2O3Ratio": "0.0000", "SiO2xAl2O3Ratio": null, "xAl2O3": null, "R2OTotal": "0.0000", "ROTotal": "1.0000"}, "molPercentageAnalysis": {"Fe2O3": "100.0000"}, "formulaAnalysis": {"Fe2O3": "1.0000"}, "thermalExpansion": "12.5000", "weight": "0.0000", "oxideWeight": "159.6887"}, "thumbnail": {"id": 4896, "materialId": 15387, "title": "", "filename": "15387.5a6a6bb002155.jpg", "createdByUserId": 1, "createdAtDiff": "6 years ago"}}}], "analysis": {"percentageAnalysis": {"SiO2": "58.9011", "Al2O3": "9.7984", "Na2O": "1.4733", "K2O": "4.9155", "MgO": "0.0041", "CaO": "3.4543", "BaO": "12.1820", "P2O5": "0.0102", "TiO2": "0.0149", "Fe2O3": "1.9416", "loi": "6.9125"}, "umfAnalysis": {"SiO2": "4.5153", "Al2O3": "0.4426", "Na2O": "0.1095", "K2O": "0.2404", "MgO": "0.0005", "CaO": "0.2837", "BaO": "0.3660", "P2O5": "0.0003", "TiO2": "0.0009", "Fe2O3": "0.0560", "SiO2Al2O3Ratio": "10.2008", "R2OTotal": "0.3498", "ROTotal": "0.6502"}, "xUmfAnalysis": {"SiO2": "4.2758", "Al2O3": "0.4192", "Na2O": "0.1037", "K2O": "0.2276", "MgO": "0.0004", "CaO": "0.2687", "BaO": "0.3465", "P2O5": "0.0003", "TiO2": "0.0008", "Fe2O3": "0.0530", "SiO2Al2O3Ratio": "10.2008", "SiO2xAl2O3Ratio": "10.1810", "xAl2O3": "0.4200", "R2OTotal": "0.3313", "ROTotal": "0.6687"}, "molPercentageAnalysis": {"SiO2": "75.0656", "Al2O3": "7.3588", "Na2O": "1.8202", "K2O": "3.9959", "MgO": "0.0077", "CaO": "4.7169", "BaO": "6.0839", "P2O5": "0.0055", "TiO2": "0.0143", "Fe2O3": "0.9310"}, "formulaAnalysis": {"SiO2": "0.9803", "Al2O3": "0.0961", "Na2O": "0.0238", "K2O": "0.0522", "MgO": "0.0001", "CaO": "0.0616", "BaO": "0.0795", "P2O5": "0.0001", "TiO2": "0.0002", "Fe2O3": "0.0122"}, "thermalExpansion": "7.7714", "weight": null, "oxideWeight": null}, "images": [{"id": 10082, "materialId": 30866, "title": "Choy Blue Celadon", "description": "", "ortonConeId": 34, "atmosphereId": 1, "is_color_searchable": 1, "dominantRgbR": 79, "dominantRgbG": 70, "dominantRgbB": 49, "dominantHexColor": "4f4631", "secondaryRgbR": 198, "secondaryRgbG": 180, "secondaryRgbB": 141, "secondaryHexColor": "c6b48d", "filename": "30866.5c6c0ce8205c3.jpg", "isPrivate": false, "createdByUser": {"id": 7337, "name": "Alfred Grinding Room - Glazes", "locale": "en", "profile": {"username": "alfredgrindingroom", "title": null, "description": null, "countryId": null, "countryName": null, "url": "http://www.alfredgrindingroom.com/", "pinterest": null, "facebook": null, "instagram": null, "artaxis": null, "paypal": null}, "is_patron": 1, "material_image_count": 345, "createdAt": "2019-02-07T13:46:17", "updatedAt": "2022-04-14T18:56:35"}, "createdByUserId": 7337, "createdAt": "2019-02-19T14:04:24", "createdAtHuman": "19 Feb 2019", "createdAtDiff": "5 years ago", "updatedAt": "2019-02-19T14:04:24", "updatedAtHuman": "19 Feb 2019", "updatedAtDiff": "5 years ago"}, {"id": 10083, "materialId": 30866, "title": "Choy Blue Celadon", "description": "", "ortonConeId": 34, "atmosphereId": 3, "is_color_searchable": 1, "dominantRgbR": 43, "dominantRgbG": 43, "dominantRgbB": 39, "dominantHexColor": "2b2b27", "secondaryRgbR": 169, "secondaryRgbG": 163, "secondaryRgbB": 151, "secondaryHexColor": "a9a397", "filename": "30866.5c6c0cf530bc5.jpg", "isPrivate": false, "createdByUser": {"id": 7337, "name": "Alfred Grinding Room - Glazes", "locale": "en", "profile": {"username": "alfredgrindingroom", "title": null, "description": null, "countryId": null, "countryName": null, "url": "http://www.alfredgrindingroom.com/", "pinterest": null, "facebook": null, "instagram": null, "artaxis": null, "paypal": null}, "is_patron": 1, "material_image_count": 345, "createdAt": "2019-02-07T13:46:17", "updatedAt": "2022-04-14T18:56:35"}, "createdByUserId": 7337, "createdAt": "2019-02-19T14:04:37", "createdAtHuman": "19 Feb 2019", "createdAtDiff": "5 years ago", "updatedAt": "2019-02-19T14:04:37", "updatedAtHuman": "19 Feb 2019", "updatedAtDiff": "5 years ago"}], "thumbnail": {"id": 10083, "materialId": 30866, "title": "Choy Blue Celadon", "description": "", "ortonConeId": 34, "atmosphereId": 3, "is_color_searchable": 1, "dominantRgbR": 43, "dominantRgbG": 43, "dominantRgbB": 39, "dominantHexColor": "2b2b27", "secondaryRgbR": 169, "secondaryRgbG": 163, "secondaryRgbB": 151, "secondaryHexColor": "a9a397", "filename": "30866.5c6c0cf530bc5.jpg", "isPrivate": false, "createdByUser": {"id": 7337, "name": "Alfred Grinding Room - Glazes", "locale": "en", "profile": {"username": "alfredgrindingroom", "title": null, "description": null, "countryId": null, "countryName": null, "url": "http://www.alfredgrindingroom.com/", "pinterest": null, "facebook": null, "instagram": null, "artaxis": null, "paypal": null}, "is_patron": 1, "material_image_count": 345, "createdAt": "2019-02-07T13:46:17", "updatedAt": "2022-04-14T18:56:35"}, "createdByUserId": 7337, "createdAt": "2019-02-19T14:04:37", "createdAtHuman": "19 Feb 2019", "createdAtDiff": "5 years ago", "updatedAt": "2019-02-19T14:04:37", "updatedAtHuman": "19 Feb 2019", "updatedAtDiff": "5 years ago"}, "reviews": [], "comments": [{"id": 20375, "parentId": null, "materialId": 30866, "userId": 30640, "content": "I tried for cone 9, adjusted a little bit:\r\nCuster Feldspar 51.55\r\nSilica 22.68\r\nBarium Carb 12.37\r\nWhiting 8.25\r\nEPK 4.12\r\nFrit 3134 1.03\r\n+RIO 2 \r\n\r\nLet me know what you think", "filename": "30866.656833e6e80b0.jpg", "user": {"id": 30640, "name": "Carlos Leon", "locale": "en", "profile": null, "is_patron": 1, "material_image_count": 2, "createdAt": "2021-11-01T21:06:19", "updatedAt": "2024-09-10T19:41:53"}, "createdAt": "2023-11-30T07:04:07", "createdAtHuman": "30 Nov 2023", "createdAtDiff": "10 months ago", "updatedAt": "2023-11-30T07:04:07", "updatedAtHuman": "30 Nov 2023", "updatedAtDiff": "10 months ago"}], "translations": [{"id": 25226, "name": "Choy Blue Celadon", "other_names": null, "description": null, "locale": "en"}], "createdByUser": {"id": 7337, "name": "Alfred Grinding Room - Glazes", "locale": "en", "profile": {"username": "alfredgrindingroom", "title": null, "description": null, "countryId": null, "countryName": null, "url": "http://www.alfredgrindingroom.com/", "pinterest": null, "facebook": null, "instagram": null, "artaxis": null, "paypal": null}, "is_patron": 1, "material_image_count": 345, "createdAt": "2019-02-07T13:46:17", "updatedAt": "2022-04-14T18:56:35"}}}