{"data": {"id": 30881, "parentId": null, "children": [], "siblings": [], "revisionParentId": null, "revisionChildren": [{"id": 388464, "name": "Haynes Satin (Talc Free Test)", "createdByUserId": 6599}], "name": "Haynes Satin", "otherNames": null, "formula": null, "description": null, "isAnalysis": false, "isPrimitive": false, "isArchived": true, "default_locale": "en", "materialStateId": 2, "materialStateName": "Production", "materialTypeId": 480, "baseTypeId": 460, "materialType": {"id": 480, "parentMaterialType": {"id": 460, "parentMaterialType": {"id": 100}}}, "fromOrtonConeId": 33, "fromOrtonConeName": "9", "toOrtonConeId": 34, "toOrtonConeName": "10", "surfaceTypeId": 7, "surfaceTypeName": "Satin-matte", "transparencyTypeId": 2, "transparencyTypeName": "Semi-opaque", "kilnSchedule": null, "waterAmount": null, "specificGravity": null, "thumbnailId": 10100, "ratingTotal": 0, "ratingNumber": 0, "ratingAverage": "0.00", "isPrivate": false, "createdByUserId": 7337, "createdAt": "2019-02-19T15:36:15", "createdAtHuman": "19 Feb 2019", "createdAtDiff": "5 years ago", "updatedAt": "2024-08-17T05:01:04", "updatedAtHuman": "17 Aug 2024", "updatedAtDiff": "1 month ago", "materialComponentTotalAmount": 72, "atmospheres": [{"id": 1, "name": "Oxidation"}, {"id": 3, "name": "Reduction"}], "materialComponents": [{"percentageAmount": "45.0000", "isAdditional": false, "material": {"id": 16050, "name": "Neph Sye A270", "isAnalysis": false, "isPrimitive": true, "isPrivate": false, "isArchived": true, "materialStateId": 2, "analysis": {"percentageAnalysis": {"SiO2": "60.2000", "Al2O3": "23.6000", "Na2O": "10.4000", "K2O": "4.8500", "MgO": "0.0200", "CaO": "0.3900", "Fe2O3": "0.0800", "loi": "0.5000"}, "umfAnalysis": {"SiO2": "4.4188", "Al2O3": "1.0208", "Na2O": "0.7401", "K2O": "0.2271", "MgO": "0.0022", "CaO": "0.0307", "Fe2O3": "0.0022", "SiO2Al2O3Ratio": "4.3287", "R2OTotal": "0.9671", "ROTotal": "0.0329"}, "xUmfAnalysis": {"SiO2": "4.4091", "Al2O3": "1.0186", "Na2O": "0.7384", "K2O": "0.2266", "MgO": "0.0022", "CaO": "0.0306", "Fe2O3": "0.0022", "SiO2Al2O3Ratio": "4.3287", "SiO2xAl2O3Ratio": "4.3287", "xAl2O3": "1.0186", "R2OTotal": "0.9650", "ROTotal": "0.0350"}, "molPercentageAnalysis": {"SiO2": "68.5954", "Al2O3": "15.8468", "Na2O": "11.4882", "K2O": "3.5251", "MgO": "0.0340", "CaO": "0.4762", "Fe2O3": "0.0343"}, "formulaAnalysis": {"SiO2": "4.4188", "Al2O3": "1.0208", "Na2O": "0.7401", "K2O": "0.2271", "MgO": "0.0022", "CaO": "0.0307", "Fe2O3": "0.0022"}, "thermalExpansion": "9.3351", "weight": "0.0000", "oxideWeight": "439.0088"}, "thumbnail": {"id": 24171, "materialId": 16050, "title": null, "filename": "16050.5edd51cde24b6.jpg", "createdByUserId": 8949, "createdAtDiff": "4 years ago"}}}, {"percentageAmount": "10.0000", "isAdditional": false, "material": {"id": 15135, "name": "Dolomite", "isAnalysis": false, "isPrimitive": true, "isPrivate": false, "isArchived": true, "materialStateId": 2, "analysis": {"percentageAnalysis": {"MgO": "21.9081", "CaO": "30.4819", "loi": "47.6100"}, "umfAnalysis": {"MgO": "0.5000", "CaO": "0.5000", "SiO2Al2O3Ratio": "0.0000", "R2OTotal": "0.0000", "ROTotal": "1.0000"}, "xUmfAnalysis": {"MgO": "0.5000", "CaO": "0.5000", "SiO2Al2O3Ratio": "0.0000", "SiO2xAl2O3Ratio": null, "xAl2O3": null, "R2OTotal": "0.0000", "ROTotal": "1.0000"}, "molPercentageAnalysis": {"MgO": "50.0000", "CaO": "50.0000"}, "formulaAnalysis": {"MgO": "0.5000", "CaO": "0.5000"}, "thermalExpansion": "9.6983", "weight": "96.3900", "oxideWeight": "96.3823"}, "thumbnail": {"id": 4892, "materialId": 15135, "title": "", "filename": "15135.5a6a6b56886ec.jpg", "createdByUserId": 1, "createdAtDiff": "6 years ago"}}}, {"percentageAmount": "8.0000", "isAdditional": false, "material": {"id": 15457, "name": "Whiting", "isAnalysis": false, "isPrimitive": true, "isPrivate": false, "isArchived": true, "materialStateId": 2, "analysis": {"percentageAnalysis": {"CaO": "56.1000", "loi": "43.9000"}, "umfAnalysis": {"CaO": "1.0000", "SiO2Al2O3Ratio": "0.0000", "R2OTotal": "0.0000", "ROTotal": "1.0000"}, "xUmfAnalysis": {"CaO": "1.0000", "SiO2Al2O3Ratio": "0.0000", "SiO2xAl2O3Ratio": null, "xAl2O3": null, "R2OTotal": "0.0000", "ROTotal": "1.0000"}, "molPercentageAnalysis": {"CaO": "100.0000"}, "formulaAnalysis": {"CaO": "1.0000"}, "thermalExpansion": "14.8000", "weight": "99.9590", "oxideWeight": "56.0770"}, "thumbnail": {"id": 16835, "materialId": 15457, "title": null, "filename": "15457.5de7d47035ff4.jpg", "createdByUserId": 7, "createdAtDiff": "4 years ago"}}}, {"percentageAmount": "7.0000", "isAdditional": false, "material": {"id": 15608, "name": "Amtalc-C98 Talc", "isAnalysis": false, "isPrimitive": true, "isPrivate": false, "isArchived": true, "materialStateId": 2, "analysis": {"percentageAnalysis": {"SiO2": "53.5000", "Al2O3": "0.3000", "K2O": "0.3000", "MgO": "29.5000", "CaO": "3.5000", "TiO2": "0.1000", "Fe2O3": "0.5000", "loi": "12.0000"}, "umfAnalysis": {"SiO2": "1.1164", "Al2O3": "0.0037", "K2O": "0.0040", "MgO": "0.9177", "CaO": "0.0783", "TiO2": "0.0016", "Fe2O3": "0.0039", "SiO2Al2O3Ratio": "302.6220", "R2OTotal": "0.0040", "ROTotal": "0.9960"}, "xUmfAnalysis": {"SiO2": "1.1121", "Al2O3": "0.0037", "K2O": "0.0040", "MgO": "0.9142", "CaO": "0.0780", "TiO2": "0.0016", "Fe2O3": "0.0039", "SiO2Al2O3Ratio": "302.6220", "SiO2xAl2O3Ratio": "212.2844", "xAl2O3": "0.0052", "R2OTotal": "0.0040", "ROTotal": "0.9960"}, "molPercentageAnalysis": {"SiO2": "52.5230", "Al2O3": "0.1736", "K2O": "0.1879", "MgO": "43.1753", "CaO": "3.6817", "TiO2": "0.0739", "Fe2O3": "0.1847"}, "formulaAnalysis": {"SiO2": "1.1164", "Al2O3": "0.0037", "K2O": "0.0040", "MgO": "0.9177", "CaO": "0.0783", "TiO2": "0.0016", "Fe2O3": "0.0039"}, "thermalExpansion": "3.8228", "weight": "0.0000", "oxideWeight": "109.9650"}, "thumbnail": null}}, {"percentageAmount": "2.0000", "isAdditional": true, "material": {"id": 15072, "name": "Bentonite", "isAnalysis": false, "isPrimitive": true, "isPrivate": false, "isArchived": true, "materialStateId": 2, "analysis": {"percentageAnalysis": {"SiO2": "59.3295", "Al2O3": "20.1153", "Na2O": "3.0194", "K2O": "1.0064", "MgO": "2.0096", "CaO": "1.0057", "Fe2O3": "3.5140", "loi": "10.0000"}, "umfAnalysis": {"SiO2": "7.7630", "Al2O3": "1.5510", "Na2O": "0.3830", "K2O": "0.0840", "MgO": "0.3920", "CaO": "0.1410", "Fe2O3": "0.1730", "SiO2Al2O3Ratio": "5.0051", "R2OTotal": "0.4670", "ROTotal": "0.5330"}, "xUmfAnalysis": {"SiO2": "6.6181", "Al2O3": "1.3223", "Na2O": "0.3265", "K2O": "0.0716", "MgO": "0.3342", "CaO": "0.1202", "Fe2O3": "0.1475", "SiO2Al2O3Ratio": "5.0051", "SiO2xAl2O3Ratio": "5.0051", "xAl2O3": "1.3223", "R2OTotal": "0.3981", "ROTotal": "0.6019"}, "molPercentageAnalysis": {"SiO2": "74.0248", "Al2O3": "14.7899", "Na2O": "3.6522", "K2O": "0.8010", "MgO": "3.7380", "CaO": "1.3445", "Fe2O3": "1.6497"}, "formulaAnalysis": {"SiO2": "5.0051", "Al2O3": "1.0000", "Na2O": "0.2469", "K2O": "0.0542", "MgO": "0.2527", "CaO": "0.0909", "Fe2O3": "0.1115"}, "thermalExpansion": "6.0953", "weight": "0.0000", "oxideWeight": "707.5601"}, "thumbnail": {"id": 4882, "materialId": 15072, "title": "", "filename": "15072.5a6a6a3c01481.jpg", "createdByUserId": 1, "createdAtDiff": "6 years ago"}}}], "analysis": {"percentageAnalysis": {"SiO2": "44.4744", "Al2O3": "15.3379", "Na2O": "6.5839", "K2O": "3.0884", "MgO": "5.9792", "CaO": "11.0789", "TiO2": "0.0097", "Fe2O3": "0.1962", "loi": "13.2472"}, "umfAnalysis": {"SiO2": "1.5264", "Al2O3": "0.3102", "Na2O": "0.2191", "K2O": "0.0676", "MgO": "0.3059", "CaO": "0.4074", "TiO2": "0.0003", "Fe2O3": "0.0025", "SiO2Al2O3Ratio": "4.9205", "R2OTotal": "0.2867", "ROTotal": "0.7133"}, "xUmfAnalysis": {"SiO2": "1.5225", "Al2O3": "0.3094", "Na2O": "0.2185", "K2O": "0.0674", "MgO": "0.3052", "CaO": "0.4064", "TiO2": "0.0002", "Fe2O3": "0.0025", "SiO2Al2O3Ratio": "4.9205", "SiO2xAl2O3Ratio": "4.9166", "xAl2O3": "0.3097", "R2OTotal": "0.2859", "ROTotal": "0.7141"}, "molPercentageAnalysis": {"SiO2": "53.7577", "Al2O3": "10.9252", "Na2O": "7.7150", "K2O": "2.3812", "MgO": "10.7743", "CaO": "14.3486", "TiO2": "0.0088", "Fe2O3": "0.0892"}, "formulaAnalysis": {"SiO2": "0.7402", "Al2O3": "0.1504", "Na2O": "0.1062", "K2O": "0.0328", "MgO": "0.1484", "CaO": "0.1976", "TiO2": "0.0001", "Fe2O3": "0.0012"}, "thermalExpansion": "9.1231", "weight": null, "oxideWeight": null}, "images": [{"id": 10100, "materialId": 30881, "title": "Haynes Satin", "description": "", "ortonConeId": 34, "atmosphereId": 1, "is_color_searchable": 1, "dominantRgbR": 161, "dominantRgbG": 158, "dominantRgbB": 156, "dominantHexColor": "a19e9c", "secondaryRgbR": 17, "secondaryRgbG": 17, "secondaryRgbB": 18, "secondaryHexColor": "111112", "filename": "30881.5c6c2287ecf2d.jpg", "isPrivate": false, "createdByUser": {"id": 7337, "name": "Alfred Grinding Room - Glazes", "locale": "en", "profile": {"username": "alfredgrindingroom", "title": null, "description": null, "countryId": null, "countryName": null, "url": "http://www.alfredgrindingroom.com/", "pinterest": null, "facebook": null, "instagram": null, "artaxis": null, "paypal": null}, "is_patron": 1, "material_image_count": 345, "createdAt": "2019-02-07T13:46:17", "updatedAt": "2022-04-14T18:56:35"}, "createdByUserId": 7337, "createdAt": "2019-02-19T15:36:40", "createdAtHuman": "19 Feb 2019", "createdAtDiff": "5 years ago", "updatedAt": "2019-02-19T15:36:40", "updatedAtHuman": "19 Feb 2019", "updatedAtDiff": "5 years ago"}, {"id": 10101, "materialId": 30881, "title": "Haynes Satin", "description": "", "ortonConeId": 34, "atmosphereId": 3, "is_color_searchable": 1, "dominantRgbR": 68, "dominantRgbG": 68, "dominantRgbB": 69, "dominantHexColor": "444445", "secondaryRgbR": 171, "secondaryRgbG": 171, "secondaryRgbB": 172, "secondaryHexColor": "ababac", "filename": "30881.5c6c22945bfe3.jpg", "isPrivate": false, "createdByUser": {"id": 7337, "name": "Alfred Grinding Room - Glazes", "locale": "en", "profile": {"username": "alfredgrindingroom", "title": null, "description": null, "countryId": null, "countryName": null, "url": "http://www.alfredgrindingroom.com/", "pinterest": null, "facebook": null, "instagram": null, "artaxis": null, "paypal": null}, "is_patron": 1, "material_image_count": 345, "createdAt": "2019-02-07T13:46:17", "updatedAt": "2022-04-14T18:56:35"}, "createdByUserId": 7337, "createdAt": "2019-02-19T15:36:53", "createdAtHuman": "19 Feb 2019", "createdAtDiff": "5 years ago", "updatedAt": "2019-02-19T15:36:53", "updatedAtHuman": "19 Feb 2019", "updatedAtDiff": "5 years ago"}], "thumbnail": {"id": 10100, "materialId": 30881, "title": "Haynes Satin", "description": "", "ortonConeId": 34, "atmosphereId": 1, "is_color_searchable": 1, "dominantRgbR": 161, "dominantRgbG": 158, "dominantRgbB": 156, "dominantHexColor": "a19e9c", "secondaryRgbR": 17, "secondaryRgbG": 17, "secondaryRgbB": 18, "secondaryHexColor": "111112", "filename": "30881.5c6c2287ecf2d.jpg", "isPrivate": false, "createdByUser": {"id": 7337, "name": "Alfred Grinding Room - Glazes", "locale": "en", "profile": {"username": "alfredgrindingroom", "title": null, "description": null, "countryId": null, "countryName": null, "url": "http://www.alfredgrindingroom.com/", "pinterest": null, "facebook": null, "instagram": null, "artaxis": null, "paypal": null}, "is_patron": 1, "material_image_count": 345, "createdAt": "2019-02-07T13:46:17", "updatedAt": "2022-04-14T18:56:35"}, "createdByUserId": 7337, "createdAt": "2019-02-19T15:36:40", "createdAtHuman": "19 Feb 2019", "createdAtDiff": "5 years ago", "updatedAt": "2019-02-19T15:36:40", "updatedAtHuman": "19 Feb 2019", "updatedAtDiff": "5 years ago"}, "reviews": [], "comments": [{"id": 16025, "parentId": null, "materialId": 30881, "userId": 33686, "content": "I believe you're missing 30 silica in the recipe :)", "filename": null, "user": {"id": 33686, "name": "Benjamin Cab\u00e9", "locale": "en", "profile": {"username": "kartben", "title": null, "description": null, "countryId": null, "countryName": null, "url": null, "pinterest": "kartben", "facebook": null, "instagram": "kartbenpottery", "artaxis": null, "paypal": null}, "is_patron": 1, "material_image_count": 3, "createdAt": "2022-02-09T18:07:15", "updatedAt": "2023-11-12T01:02:42"}, "createdAt": "2022-10-20T08:09:01", "createdAtHuman": "20 Oct 2022", "createdAtDiff": "1 year ago", "updatedAt": "2022-10-20T08:09:01", "updatedAtHuman": "20 Oct 2022", "updatedAtDiff": "1 year ago"}, {"id": 23425, "parentId": null, "materialId": 30881, "userId": 62282, "content": "Totally did", "filename": null, "user": {"id": 62282, "name": "Alexander Sviridov", "locale": "en", "profile": null, "is_patron": 0, "material_image_count": 3, "createdAt": "2024-03-29T05:12:56", "updatedAt": "2024-09-28T21:08:29"}, "createdAt": "2024-08-17T05:01:04", "createdAtHuman": "17 Aug 2024", "createdAtDiff": "1 month ago", "updatedAt": "2024-08-17T05:01:04", "updatedAtHuman": "17 Aug 2024", "updatedAtDiff": "1 month ago"}], "translations": [{"id": 25240, "name": "Haynes Satin", "other_names": null, "description": null, "locale": "en"}], "createdByUser": {"id": 7337, "name": "Alfred Grinding Room - Glazes", "locale": "en", "profile": {"username": "alfredgrindingroom", "title": null, "description": null, "countryId": null, "countryName": null, "url": "http://www.alfredgrindingroom.com/", "pinterest": null, "facebook": null, "instagram": null, "artaxis": null, "paypal": null}, "is_patron": 1, "material_image_count": 345, "createdAt": "2019-02-07T13:46:17", "updatedAt": "2022-04-14T18:56:35"}}}