{"data": {"id": 30889, "parentId": null, "children": [], "siblings": [], "revisionParentId": null, "revisionChildren": [], "name": "Kulisek Satin Matt G-1", "otherNames": null, "formula": null, "description": null, "isAnalysis": false, "isPrimitive": false, "isArchived": true, "default_locale": "en", "materialStateId": 2, "materialStateName": "Production", "materialTypeId": 673, "baseTypeId": 460, "materialType": {"id": 673, "parentMaterialType": {"id": 635, "parentMaterialType": {"id": 460, "parentMaterialType": {"id": 100}}}}, "fromOrtonConeId": 33, "fromOrtonConeName": "9", "toOrtonConeId": 34, "toOrtonConeName": "10", "surfaceTypeId": 7, "surfaceTypeName": "Satin-matte", "transparencyTypeId": 1, "transparencyTypeName": "Opaque", "kilnSchedule": null, "waterAmount": null, "specificGravity": null, "thumbnailId": 10112, "ratingTotal": 0, "ratingNumber": 0, "ratingAverage": "0.00", "isPrivate": false, "createdByUserId": 7337, "createdAt": "2019-02-19T15:52:22", "createdAtHuman": "19 Feb 2019", "createdAtDiff": "5 years ago", "updatedAt": "2022-05-09T07:39:47", "updatedAtHuman": "09 May 2022", "updatedAtDiff": "2 years ago", "materialComponentTotalAmount": 105.5, "atmospheres": [{"id": 1, "name": "Oxidation"}, {"id": 3, "name": "Reduction"}], "materialComponents": [{"percentageAmount": "58.0000", "isAdditional": false, "material": {"id": 15470, "name": "Minspar 200", "isAnalysis": false, "isPrimitive": true, "isPrivate": false, "isArchived": true, "materialStateId": 2, "analysis": {"percentageAnalysis": {"SiO2": "68.9053", "Al2O3": "18.5819", "Na2O": "6.5292", "K2O": "4.1181", "CaO": "1.5065", "Fe2O3": "0.0590", "loi": "0.3000"}, "umfAnalysis": {"SiO2": "6.5185", "Al2O3": "1.0359", "Na2O": "0.5988", "K2O": "0.2485", "CaO": "0.1527", "Fe2O3": "0.0021", "SiO2Al2O3Ratio": "6.2926", "R2OTotal": "0.8473", "ROTotal": "0.1527"}, "xUmfAnalysis": {"SiO2": "6.5049", "Al2O3": "1.0337", "Na2O": "0.5975", "K2O": "0.2480", "CaO": "0.1524", "Fe2O3": "0.0021", "SiO2Al2O3Ratio": "6.2926", "SiO2xAl2O3Ratio": "6.2926", "xAl2O3": "1.0337", "R2OTotal": "0.8455", "ROTotal": "0.1545"}, "molPercentageAnalysis": {"SiO2": "76.1819", "Al2O3": "12.1066", "Na2O": "6.9981", "K2O": "2.9042", "CaO": "1.7846", "Fe2O3": "0.0245"}, "formulaAnalysis": {"SiO2": "6.5185", "Al2O3": "1.0359", "Na2O": "0.5988", "K2O": "0.2485", "CaO": "0.1527", "Fe2O3": "0.0021"}, "thermalExpansion": "7.7258", "weight": "0.0000", "oxideWeight": "566.7070"}, "thumbnail": {"id": 16822, "materialId": 15470, "title": null, "filename": "15470.5de7d0a880076.jpg", "createdByUserId": 7, "createdAtDiff": "4 years ago"}}}, {"percentageAmount": "24.0000", "isAdditional": false, "material": {"id": 15457, "name": "Whiting", "isAnalysis": false, "isPrimitive": true, "isPrivate": false, "isArchived": true, "materialStateId": 2, "analysis": {"percentageAnalysis": {"CaO": "56.1000", "loi": "43.9000"}, "umfAnalysis": {"CaO": "1.0000", "SiO2Al2O3Ratio": "0.0000", "R2OTotal": "0.0000", "ROTotal": "1.0000"}, "xUmfAnalysis": {"CaO": "1.0000", "SiO2Al2O3Ratio": "0.0000", "SiO2xAl2O3Ratio": null, "xAl2O3": null, "R2OTotal": "0.0000", "ROTotal": "1.0000"}, "molPercentageAnalysis": {"CaO": "100.0000"}, "formulaAnalysis": {"CaO": "1.0000"}, "thermalExpansion": "14.8000", "weight": "99.9590", "oxideWeight": "56.0770"}, "thumbnail": {"id": 16835, "materialId": 15457, "title": null, "filename": "15457.5de7d47035ff4.jpg", "createdByUserId": 7, "createdAtDiff": "4 years ago"}}}, {"percentageAmount": "16.0000", "isAdditional": false, "material": {"id": 15137, "name": "EP Kaolin", "isAnalysis": false, "isPrimitive": true, "isPrivate": false, "isArchived": true, "materialStateId": 2, "analysis": {"percentageAnalysis": {"SiO2": "45.7270", "Al2O3": "37.3603", "Na2O": "0.0681", "K2O": "0.3451", "MgO": "0.1034", "CaO": "0.1849", "P2O5": "0.2601", "TiO2": "0.3804", "Fe2O3": "0.7607", "loi": "14.8100"}, "umfAnalysis": {"SiO2": "71.6261", "Al2O3": "34.4859", "Na2O": "0.1034", "K2O": "0.3448", "MgO": "0.2415", "CaO": "0.3103", "P2O5": "0.1725", "TiO2": "0.4483", "Fe2O3": "0.4483", "SiO2Al2O3Ratio": "2.0770", "R2OTotal": "0.4482", "ROTotal": "0.5518"}, "xUmfAnalysis": {"SiO2": "49.4540", "Al2O3": "23.8106", "Na2O": "0.0714", "K2O": "0.2381", "MgO": "0.1667", "CaO": "0.2143", "P2O5": "0.1191", "TiO2": "0.3095", "Fe2O3": "0.3096", "SiO2Al2O3Ratio": "2.0770", "SiO2xAl2O3Ratio": "2.0503", "xAl2O3": "24.1202", "R2OTotal": "0.3095", "ROTotal": "0.6905"}, "molPercentageAnalysis": {"SiO2": "66.2095", "Al2O3": "31.8779", "Na2O": "0.0956", "K2O": "0.3187", "MgO": "0.2232", "CaO": "0.2869", "P2O5": "0.1594", "TiO2": "0.4144", "Fe2O3": "0.4144"}, "formulaAnalysis": {"SiO2": "2.0770", "Al2O3": "1.0000", "Na2O": "0.0030", "K2O": "0.0100", "MgO": "0.0070", "CaO": "0.0090", "P2O5": "0.0050", "TiO2": "0.0130", "Fe2O3": "0.0130"}, "thermalExpansion": "5.0178", "weight": "0.0000", "oxideWeight": "232.4953"}, "thumbnail": {"id": 4952, "materialId": 15137, "title": "", "filename": "15137.5a6ba32627dcd.jpg", "createdByUserId": 1, "createdAtDiff": "6 years ago"}}}, {"percentageAmount": "2.0000", "isAdditional": false, "material": {"id": 15442, "name": "Tin Oxide", "isAnalysis": false, "isPrimitive": true, "isPrivate": false, "isArchived": true, "materialStateId": 2, "analysis": {"percentageAnalysis": {"SnO2": "100.0000", "loi": "0.0000"}, "umfAnalysis": {"SiO2Al2O3Ratio": "0.0000", "R2OTotal": "0.0000", "ROTotal": "0.0000"}, "xUmfAnalysis": {"SnO2": "1.0000", "SiO2Al2O3Ratio": "0.0000", "SiO2xAl2O3Ratio": null, "xAl2O3": null, "R2OTotal": "1.0000", "ROTotal": "0.0000"}, "molPercentageAnalysis": {"SnO2": "100.0000"}, "formulaAnalysis": {"SnO2": "1.0000"}, "thermalExpansion": "2.0000", "weight": "150.7100", "oxideWeight": "150.7096"}, "thumbnail": {"id": 16832, "materialId": 15442, "title": null, "filename": "15442.5de7d4042bb64.jpg", "createdByUserId": 7, "createdAtDiff": "4 years ago"}}}, {"percentageAmount": "5.0000", "isAdditional": true, "material": {"id": 15393, "name": "Rutile", "isAnalysis": false, "isPrimitive": true, "isPrivate": false, "isArchived": true, "materialStateId": 2, "analysis": {"percentageAnalysis": {"TiO2": "90.0024", "Fe2O3": "9.8976", "loi": "0.1000"}, "umfAnalysis": {"SiO2Al2O3Ratio": "0.0000", "R2OTotal": "0.0000", "ROTotal": "0.0000"}, "xUmfAnalysis": {"TiO2": "18.1817", "Fe2O3": "1.0000", "SiO2Al2O3Ratio": "0.0000", "SiO2xAl2O3Ratio": null, "xAl2O3": null, "R2OTotal": "0.0000", "ROTotal": "1.0000"}, "molPercentageAnalysis": {"TiO2": "94.7867", "Fe2O3": "5.2133"}, "formulaAnalysis": {"TiO2": "1.0000", "Fe2O3": "0.0550"}, "thermalExpansion": "14.2100", "weight": "88.8660", "oxideWeight": "88.6489"}, "thumbnail": {"id": 4978, "materialId": 15393, "title": "", "filename": "15393.5a6ba51a8dd00.jpg", "createdByUserId": 1, "createdAtDiff": "6 years ago"}}}, {"percentageAmount": "0.5000", "isAdditional": true, "material": {"id": 15108, "name": "Chrome Oxide", "isAnalysis": false, "isPrimitive": true, "isPrivate": false, "isArchived": true, "materialStateId": 2, "analysis": {"percentageAnalysis": {"Cr2O3": "100.0000", "loi": "0.0000"}, "umfAnalysis": {"SiO2Al2O3Ratio": "0.0000", "R2OTotal": "0.0000", "ROTotal": "0.0000"}, "xUmfAnalysis": {"SiO2Al2O3Ratio": "0.0000", "SiO2xAl2O3Ratio": null, "xAl2O3": null, "R2OTotal": "0.0000", "ROTotal": "0.0000"}, "molPercentageAnalysis": {"Cr2O3": "100.0000"}, "formulaAnalysis": {"Cr2O3": "1.0000"}, "thermalExpansion": "0.0000", "weight": "152.0000", "oxideWeight": "151.9906"}, "thumbnail": {"id": 4947, "materialId": 15108, "title": "", "filename": "15108.5a6ba2ae62ceb.jpg", "createdByUserId": 1, "createdAtDiff": "6 years ago"}}}], "analysis": {"percentageAnalysis": {"SiO2": "44.8165", "Al2O3": "15.8817", "Na2O": "3.5998", "K2O": "2.3163", "MgO": "0.0157", "CaO": "13.6183", "P2O5": "0.0394", "TiO2": "4.3232", "Cr2O3": "0.4739", "Fe2O3": "0.6169", "SnO2": "1.8957", "loi": "12.4025"}, "umfAnalysis": {"SiO2": "2.2886", "Al2O3": "0.4779", "Na2O": "0.1782", "K2O": "0.0755", "MgO": "0.0012", "CaO": "0.7451", "P2O5": "0.0009", "TiO2": "0.1661", "Cr2O3": "0.0096", "Fe2O3": "0.0119", "SnO2": "0.0386", "SiO2Al2O3Ratio": "4.7886", "R2OTotal": "0.2537", "ROTotal": "0.7463"}, "xUmfAnalysis": {"SiO2": "2.1787", "Al2O3": "0.4550", "Na2O": "0.1697", "K2O": "0.0718", "MgO": "0.0011", "CaO": "0.7094", "P2O5": "0.0008", "TiO2": "0.1581", "Cr2O3": "0.0091", "Fe2O3": "0.0113", "SnO2": "0.0367", "SiO2Al2O3Ratio": "4.7886", "SiO2xAl2O3Ratio": "3.5536", "xAl2O3": "0.6131", "R2OTotal": "0.2782", "ROTotal": "0.7218"}, "molPercentageAnalysis": {"SiO2": "57.3084", "Al2O3": "11.9676", "Na2O": "4.4626", "K2O": "1.8893", "MgO": "0.0299", "CaO": "18.6589", "P2O5": "0.0214", "TiO2": "4.1590", "Cr2O3": "0.2396", "Fe2O3": "0.2968", "SnO2": "0.9665"}, "formulaAnalysis": {"SiO2": "0.7459", "Al2O3": "0.1558", "Na2O": "0.0581", "K2O": "0.0246", "MgO": "0.0004", "CaO": "0.2429", "P2O5": "0.0003", "TiO2": "0.0541", "Cr2O3": "0.0031", "Fe2O3": "0.0039", "SnO2": "0.0126"}, "thermalExpansion": "8.5418", "weight": null, "oxideWeight": null}, "images": [{"id": 10112, "materialId": 30889, "title": "Kulisek Satin Matt G-1", "description": "", "ortonConeId": 34, "atmosphereId": 1, "is_color_searchable": 1, "dominantRgbR": 47, "dominantRgbG": 34, "dominantRgbB": 31, "dominantHexColor": "2f221f", "secondaryRgbR": 168, "secondaryRgbG": 134, "secondaryRgbB": 127, "secondaryHexColor": "a8867f", "filename": "30889.5c6c264ce21f2.jpg", "isPrivate": false, "createdByUser": {"id": 7337, "name": "Alfred Grinding Room - Glazes", "locale": "en", "profile": {"username": "alfredgrindingroom", "title": null, "description": null, "countryId": null, "countryName": null, "url": "http://www.alfredgrindingroom.com/", "pinterest": null, "facebook": null, "instagram": null, "artaxis": null, "paypal": null}, "is_patron": 1, "material_image_count": 345, "createdAt": "2019-02-07T13:46:17", "updatedAt": "2022-04-14T18:56:35"}, "createdByUserId": 7337, "createdAt": "2019-02-19T15:52:45", "createdAtHuman": "19 Feb 2019", "createdAtDiff": "5 years ago", "updatedAt": "2019-02-19T15:52:45", "updatedAtHuman": "19 Feb 2019", "updatedAtDiff": "5 years ago"}, {"id": 10113, "materialId": 30889, "title": "Kulisek Satin Matt G-1", "description": "", "ortonConeId": 34, "atmosphereId": 3, "is_color_searchable": 1, "dominantRgbR": 59, "dominantRgbG": 47, "dominantRgbB": 44, "dominantHexColor": "3b2f2c", "secondaryRgbR": 181, "secondaryRgbG": 156, "secondaryRgbB": 150, "secondaryHexColor": "b59c96", "filename": "30889.5c6c265d25e85.jpg", "isPrivate": false, "createdByUser": {"id": 7337, "name": "Alfred Grinding Room - Glazes", "locale": "en", "profile": {"username": "alfredgrindingroom", "title": null, "description": null, "countryId": null, "countryName": null, "url": "http://www.alfredgrindingroom.com/", "pinterest": null, "facebook": null, "instagram": null, "artaxis": null, "paypal": null}, "is_patron": 1, "material_image_count": 345, "createdAt": "2019-02-07T13:46:17", "updatedAt": "2022-04-14T18:56:35"}, "createdByUserId": 7337, "createdAt": "2019-02-19T15:53:02", "createdAtHuman": "19 Feb 2019", "createdAtDiff": "5 years ago", "updatedAt": "2019-02-19T15:53:02", "updatedAtHuman": "19 Feb 2019", "updatedAtDiff": "5 years ago"}, {"id": 65556, "materialId": 30889, "title": "pour Aude et Antoine", "description": "\u00e0 associer avec du gris mat?", "ortonConeId": 33, "atmosphereId": 1, "is_color_searchable": 1, "dominantRgbR": 57, "dominantRgbG": 47, "dominantRgbB": 42, "dominantHexColor": "392f2a", "secondaryRgbR": 181, "secondaryRgbG": 158, "secondaryRgbB": 150, "secondaryHexColor": "b59e96", "filename": "30889.6278c5433b5c9.jpg", "isPrivate": false, "createdByUser": {"id": 34953, "name": "mes fiches", "locale": "fr", "profile": {"username": "moi", "title": null, "description": null, "countryId": null, "countryName": null, "url": null, "pinterest": null, "facebook": null, "instagram": null, "artaxis": null, "paypal": null}, "is_patron": 0, "material_image_count": 5, "createdAt": "2022-03-15T13:52:39", "updatedAt": "2024-05-02T05:47:49"}, "createdByUserId": 34953, "createdAt": "2022-05-09T07:39:47", "createdAtHuman": "09 May 2022", "createdAtDiff": "2 years ago", "updatedAt": "2022-05-09T07:39:47", "updatedAtHuman": "09 May 2022", "updatedAtDiff": "2 years ago"}], "thumbnail": {"id": 10112, "materialId": 30889, "title": "Kulisek Satin Matt G-1", "description": "", "ortonConeId": 34, "atmosphereId": 1, "is_color_searchable": 1, "dominantRgbR": 47, "dominantRgbG": 34, "dominantRgbB": 31, "dominantHexColor": "2f221f", "secondaryRgbR": 168, "secondaryRgbG": 134, "secondaryRgbB": 127, "secondaryHexColor": "a8867f", "filename": "30889.5c6c264ce21f2.jpg", "isPrivate": false, "createdByUser": {"id": 7337, "name": "Alfred Grinding Room - Glazes", "locale": "en", "profile": {"username": "alfredgrindingroom", "title": null, "description": null, "countryId": null, "countryName": null, "url": "http://www.alfredgrindingroom.com/", "pinterest": null, "facebook": null, "instagram": null, "artaxis": null, "paypal": null}, "is_patron": 1, "material_image_count": 345, "createdAt": "2019-02-07T13:46:17", "updatedAt": "2022-04-14T18:56:35"}, "createdByUserId": 7337, "createdAt": "2019-02-19T15:52:45", "createdAtHuman": "19 Feb 2019", "createdAtDiff": "5 years ago", "updatedAt": "2019-02-19T15:52:45", "updatedAtHuman": "19 Feb 2019", "updatedAtDiff": "5 years ago"}, "reviews": [], "comments": [{"id": 8114, "parentId": null, "materialId": 30889, "userId": 25034, "content": "Hi Alfred, really nice glaze, I\u2019d like to try it. Do you know if it might work in cone 9, and if so, if the effect is similar at all?\r\nThanks in advance!", "filename": null, "user": {"id": 25034, "name": "Jamil D", "locale": "en", "profile": {"username": "", "title": null, "description": null, "countryId": null, "countryName": null, "url": null, "pinterest": null, "facebook": null, "instagram": null, "artaxis": null, "paypal": null}, "is_patron": 0, "material_image_count": 0, "createdAt": "2021-04-02T07:40:01", "updatedAt": "2021-08-16T02:51:50"}, "createdAt": "2021-04-17T14:00:21", "createdAtHuman": "17 Apr 2021", "createdAtDiff": "3 years ago", "updatedAt": "2021-04-17T14:00:21", "updatedAtHuman": "17 Apr 2021", "updatedAtDiff": "3 years ago"}], "translations": [{"id": 25247, "name": "Kulisek Satin Matt G-1", "other_names": null, "description": null, "locale": "en"}], "createdByUser": {"id": 7337, "name": "Alfred Grinding Room - Glazes", "locale": "en", "profile": {"username": "alfredgrindingroom", "title": null, "description": null, "countryId": null, "countryName": null, "url": "http://www.alfredgrindingroom.com/", "pinterest": null, "facebook": null, "instagram": null, "artaxis": null, "paypal": null}, "is_patron": 1, "material_image_count": 345, "createdAt": "2019-02-07T13:46:17", "updatedAt": "2022-04-14T18:56:35"}}}