{"data": {"id": 30892, "parentId": null, "children": [], "siblings": [], "revisionParentId": null, "revisionChildren": [{"id": 230260, "name": "CMW Lavender Mamo", "createdByUserId": 728}], "name": "V.C. Lavender Mamo", "otherNames": null, "formula": null, "description": null, "isAnalysis": false, "isPrimitive": false, "isArchived": true, "default_locale": "en", "materialStateId": 2, "materialStateName": "Production", "materialTypeId": 820, "baseTypeId": 460, "materialType": {"id": 820, "parentMaterialType": {"id": 460, "parentMaterialType": {"id": 100}}}, "fromOrtonConeId": 33, "fromOrtonConeName": "9", "toOrtonConeId": 34, "toOrtonConeName": "10", "surfaceTypeId": 7, "surfaceTypeName": "Satin-matte", "transparencyTypeId": 2, "transparencyTypeName": "Semi-opaque", "kilnSchedule": null, "waterAmount": null, "specificGravity": null, "thumbnailId": 10118, "ratingTotal": 0, "ratingNumber": 0, "ratingAverage": "0.00", "isPrivate": false, "createdByUserId": 7337, "createdAt": "2019-02-19T16:00:49", "createdAtHuman": "19 Feb 2019", "createdAtDiff": "5 years ago", "updatedAt": "2023-05-28T04:14:19", "updatedAtHuman": "28 May 2023", "updatedAtDiff": "1 year ago", "materialComponentTotalAmount": 103, "atmospheres": [{"id": 1, "name": "Oxidation"}, {"id": 3, "name": "Reduction"}], "materialComponents": [{"percentageAmount": "47.0000", "isAdditional": false, "material": {"id": 15470, "name": "Minspar 200", "isAnalysis": false, "isPrimitive": true, "isPrivate": false, "isArchived": true, "materialStateId": 2, "analysis": {"percentageAnalysis": {"SiO2": "68.9053", "Al2O3": "18.5819", "Na2O": "6.5292", "K2O": "4.1181", "CaO": "1.5065", "Fe2O3": "0.0590", "loi": "0.3000"}, "umfAnalysis": {"SiO2": "6.5185", "Al2O3": "1.0359", "Na2O": "0.5988", "K2O": "0.2485", "CaO": "0.1527", "Fe2O3": "0.0021", "SiO2Al2O3Ratio": "6.2926", "R2OTotal": "0.8473", "ROTotal": "0.1527"}, "xUmfAnalysis": {"SiO2": "6.5049", "Al2O3": "1.0337", "Na2O": "0.5975", "K2O": "0.2480", "CaO": "0.1524", "Fe2O3": "0.0021", "SiO2Al2O3Ratio": "6.2926", "SiO2xAl2O3Ratio": "6.2926", "xAl2O3": "1.0337", "R2OTotal": "0.8455", "ROTotal": "0.1545"}, "molPercentageAnalysis": {"SiO2": "76.1819", "Al2O3": "12.1066", "Na2O": "6.9981", "K2O": "2.9042", "CaO": "1.7846", "Fe2O3": "0.0245"}, "formulaAnalysis": {"SiO2": "6.5185", "Al2O3": "1.0359", "Na2O": "0.5988", "K2O": "0.2485", "CaO": "0.1527", "Fe2O3": "0.0021"}, "thermalExpansion": "7.7258", "weight": "0.0000", "oxideWeight": "566.7070"}, "thumbnail": {"id": 16822, "materialId": 15470, "title": null, "filename": "15470.5de7d0a880076.jpg", "createdByUserId": 7, "createdAtDiff": "4 years ago"}}}, {"percentageAmount": "19.0000", "isAdditional": false, "material": {"id": 15135, "name": "Dolomite", "isAnalysis": false, "isPrimitive": true, "isPrivate": false, "isArchived": true, "materialStateId": 2, "analysis": {"percentageAnalysis": {"MgO": "21.9081", "CaO": "30.4819", "loi": "47.6100"}, "umfAnalysis": {"MgO": "0.5000", "CaO": "0.5000", "SiO2Al2O3Ratio": "0.0000", "R2OTotal": "0.0000", "ROTotal": "1.0000"}, "xUmfAnalysis": {"MgO": "0.5000", "CaO": "0.5000", "SiO2Al2O3Ratio": "0.0000", "SiO2xAl2O3Ratio": null, "xAl2O3": null, "R2OTotal": "0.0000", "ROTotal": "1.0000"}, "molPercentageAnalysis": {"MgO": "50.0000", "CaO": "50.0000"}, "formulaAnalysis": {"MgO": "0.5000", "CaO": "0.5000"}, "thermalExpansion": "9.6983", "weight": "96.3900", "oxideWeight": "96.3823"}, "thumbnail": {"id": 4892, "materialId": 15135, "title": "", "filename": "15135.5a6a6b56886ec.jpg", "createdByUserId": 1, "createdAtDiff": "6 years ago"}}}, {"percentageAmount": "11.0000", "isAdditional": false, "material": {"id": 15400, "name": "Silica", "isAnalysis": false, "isPrimitive": true, "isPrivate": false, "isArchived": true, "materialStateId": 2, "analysis": {"percentageAnalysis": {"SiO2": "100.0000", "loi": "0.0000"}, "umfAnalysis": {"SiO2Al2O3Ratio": "0.0000", "R2OTotal": "0.0000", "ROTotal": "0.0000"}, "xUmfAnalysis": {"SiO2Al2O3Ratio": "0.0000", "SiO2xAl2O3Ratio": null, "xAl2O3": null, "R2OTotal": "0.0000", "ROTotal": "0.0000"}, "molPercentageAnalysis": {"SiO2": "100.0000"}, "formulaAnalysis": {"SiO2": "1.0000"}, "thermalExpansion": "3.5000", "weight": "60.1000", "oxideWeight": "60.0844"}, "thumbnail": {"id": 4900, "materialId": 15400, "title": "", "filename": "15400.5a6a6c135b2e7.jpg", "createdByUserId": 1, "createdAtDiff": "6 years ago"}}}, {"percentageAmount": "10.0000", "isAdditional": false, "material": {"id": 15094, "name": "Calcined Kaolin", "isAnalysis": false, "isPrimitive": true, "isPrivate": false, "isArchived": true, "materialStateId": 2, "analysis": {"percentageAnalysis": {"SiO2": "54.0984", "Al2O3": "45.9016", "loi": "0.0000"}, "umfAnalysis": {"SiO2Al2O3Ratio": "0.0000", "R2OTotal": "0.0000", "ROTotal": "0.0000"}, "xUmfAnalysis": {"SiO2Al2O3Ratio": "0.0000", "SiO2xAl2O3Ratio": null, "xAl2O3": null, "R2OTotal": "0.0000", "ROTotal": "0.0000"}, "molPercentageAnalysis": {"SiO2": "66.6664", "Al2O3": "33.3336"}, "formulaAnalysis": {"SiO2": "2.0000", "Al2O3": "1.0000"}, "thermalExpansion": "4.7852", "weight": "222.2200", "oxideWeight": "222.1302"}, "thumbnail": {"id": 4886, "materialId": 15094, "title": "", "filename": "15094.5a6a6ae46b67e.jpg", "createdByUserId": 1, "createdAtDiff": "6 years ago"}}}, {"percentageAmount": "9.0000", "isAdditional": false, "material": {"id": 15137, "name": "EP Kaolin", "isAnalysis": false, "isPrimitive": true, "isPrivate": false, "isArchived": true, "materialStateId": 2, "analysis": {"percentageAnalysis": {"SiO2": "45.7270", "Al2O3": "37.3603", "Na2O": "0.0681", "K2O": "0.3451", "MgO": "0.1034", "CaO": "0.1849", "P2O5": "0.2601", "TiO2": "0.3804", "Fe2O3": "0.7607", "loi": "14.8100"}, "umfAnalysis": {"SiO2": "71.6261", "Al2O3": "34.4859", "Na2O": "0.1034", "K2O": "0.3448", "MgO": "0.2415", "CaO": "0.3103", "P2O5": "0.1725", "TiO2": "0.4483", "Fe2O3": "0.4483", "SiO2Al2O3Ratio": "2.0770", "R2OTotal": "0.4482", "ROTotal": "0.5518"}, "xUmfAnalysis": {"SiO2": "49.4540", "Al2O3": "23.8106", "Na2O": "0.0714", "K2O": "0.2381", "MgO": "0.1667", "CaO": "0.2143", "P2O5": "0.1191", "TiO2": "0.3095", "Fe2O3": "0.3096", "SiO2Al2O3Ratio": "2.0770", "SiO2xAl2O3Ratio": "2.0503", "xAl2O3": "24.1202", "R2OTotal": "0.3095", "ROTotal": "0.6905"}, "molPercentageAnalysis": {"SiO2": "66.2095", "Al2O3": "31.8779", "Na2O": "0.0956", "K2O": "0.3187", "MgO": "0.2232", "CaO": "0.2869", "P2O5": "0.1594", "TiO2": "0.4144", "Fe2O3": "0.4144"}, "formulaAnalysis": {"SiO2": "2.0770", "Al2O3": "1.0000", "Na2O": "0.0030", "K2O": "0.0100", "MgO": "0.0070", "CaO": "0.0090", "P2O5": "0.0050", "TiO2": "0.0130", "Fe2O3": "0.0130"}, "thermalExpansion": "5.0178", "weight": "0.0000", "oxideWeight": "232.4953"}, "thumbnail": {"id": 4952, "materialId": 15137, "title": "", "filename": "15137.5a6ba32627dcd.jpg", "createdByUserId": 1, "createdAtDiff": "6 years ago"}}}, {"percentageAmount": "4.0000", "isAdditional": false, "material": {"id": 15457, "name": "Whiting", "isAnalysis": false, "isPrimitive": true, "isPrivate": false, "isArchived": true, "materialStateId": 2, "analysis": {"percentageAnalysis": {"CaO": "56.1000", "loi": "43.9000"}, "umfAnalysis": {"CaO": "1.0000", "SiO2Al2O3Ratio": "0.0000", "R2OTotal": "0.0000", "ROTotal": "1.0000"}, "xUmfAnalysis": {"CaO": "1.0000", "SiO2Al2O3Ratio": "0.0000", "SiO2xAl2O3Ratio": null, "xAl2O3": null, "R2OTotal": "0.0000", "ROTotal": "1.0000"}, "molPercentageAnalysis": {"CaO": "100.0000"}, "formulaAnalysis": {"CaO": "1.0000"}, "thermalExpansion": "14.8000", "weight": "99.9590", "oxideWeight": "56.0770"}, "thumbnail": {"id": 16835, "materialId": 15457, "title": null, "filename": "15457.5de7d47035ff4.jpg", "createdByUserId": 7, "createdAtDiff": "4 years ago"}}}, {"percentageAmount": "2.0000", "isAdditional": true, "material": {"id": 15491, "name": "Veegum T", "isAnalysis": false, "isPrimitive": true, "isPrivate": false, "isArchived": true, "materialStateId": 2, "analysis": {"percentageAnalysis": {"loi": "0.0000"}, "umfAnalysis": {"SiO2Al2O3Ratio": "0.0000", "R2OTotal": "0.0000", "ROTotal": "0.0000"}, "xUmfAnalysis": {"SiO2Al2O3Ratio": "0.0000", "SiO2xAl2O3Ratio": null, "xAl2O3": null, "R2OTotal": "0.0000", "ROTotal": "0.0000"}, "molPercentageAnalysis": [], "formulaAnalysis": [], "thermalExpansion": "0.0000", "weight": "0.0000", "oxideWeight": "0.0000"}, "thumbnail": {"id": 16833, "materialId": 15491, "title": null, "filename": "15491.5de7d432660c3.jpg", "createdByUserId": 7, "createdAtDiff": "4 years ago"}}}, {"percentageAmount": "1.0000", "isAdditional": true, "material": {"id": 15114, "name": "Cobalt Carbonate", "isAnalysis": false, "isPrimitive": true, "isPrivate": false, "isArchived": true, "materialStateId": 2, "analysis": {"percentageAnalysis": {"CoO": "63.0000", "loi": "37.0000"}, "umfAnalysis": {"SiO2Al2O3Ratio": "0.0000", "R2OTotal": "0.0000", "ROTotal": "0.0000"}, "xUmfAnalysis": {"CoO": "1.0000", "SiO2Al2O3Ratio": "0.0000", "SiO2xAl2O3Ratio": null, "xAl2O3": null, "R2OTotal": "0.0000", "ROTotal": "1.0000"}, "molPercentageAnalysis": {"CoO": "100.0000"}, "formulaAnalysis": {"CoO": "1.0000"}, "thermalExpansion": "0.0000", "weight": "74.9200", "oxideWeight": "74.9326"}, "thumbnail": {"id": 16810, "materialId": 15114, "title": null, "filename": "15114.5de7cbf779cf3.jpg", "createdByUserId": 7, "createdAtDiff": "4 years ago"}}}], "analysis": {"percentageAnalysis": {"SiO2": "51.3697", "Al2O3": "16.2001", "Na2O": "2.9853", "K2O": "1.9093", "MgO": "4.0503", "CaO": "8.5051", "P2O5": "0.0227", "TiO2": "0.0332", "Fe2O3": "0.0934", "CoO": "0.6117", "loi": "12.2775"}, "umfAnalysis": {"SiO2": "2.6667", "Al2O3": "0.4956", "Na2O": "0.1502", "K2O": "0.0632", "MgO": "0.3135", "CaO": "0.4731", "P2O5": "0.0005", "TiO2": "0.0013", "Fe2O3": "0.0018", "CoO": "0.0255", "SiO2Al2O3Ratio": "5.3809", "R2OTotal": "0.2135", "ROTotal": "0.7865"}, "xUmfAnalysis": {"SiO2": "2.5959", "Al2O3": "0.4824", "Na2O": "0.1462", "K2O": "0.0615", "MgO": "0.3051", "CaO": "0.4605", "P2O5": "0.0005", "TiO2": "0.0013", "Fe2O3": "0.0018", "CoO": "0.0248", "SiO2Al2O3Ratio": "5.3809", "SiO2xAl2O3Ratio": "5.3669", "xAl2O3": "0.4837", "R2OTotal": "0.2078", "ROTotal": "0.7922"}, "molPercentageAnalysis": {"SiO2": "63.6238", "Al2O3": "11.8239", "Na2O": "3.5844", "K2O": "1.5084", "MgO": "7.4786", "CaO": "11.2869", "P2O5": "0.0119", "TiO2": "0.0310", "Fe2O3": "0.0435", "CoO": "0.6075"}, "formulaAnalysis": {"SiO2": "0.8550", "Al2O3": "0.1589", "Na2O": "0.0482", "K2O": "0.0203", "MgO": "0.1005", "CaO": "0.1517", "P2O5": "0.0002", "TiO2": "0.0004", "Fe2O3": "0.0006", "CoO": "0.0082"}, "thermalExpansion": "6.9787", "weight": null, "oxideWeight": null}, "images": [{"id": 10118, "materialId": 30892, "title": "V.C. Lavender Mamo", "description": "", "ortonConeId": 34, "atmosphereId": 1, "is_color_searchable": 1, "dominantRgbR": 46, "dominantRgbG": 47, "dominantRgbB": 63, "dominantHexColor": "2e2f3f", "secondaryRgbR": 136, "secondaryRgbG": 134, "secondaryRgbB": 139, "secondaryHexColor": "88868b", "filename": "30892.5c6c28714e982.jpg", "isPrivate": false, "createdByUser": {"id": 7337, "name": "Alfred Grinding Room - Glazes", "locale": "en", "profile": {"username": "alfredgrindingroom", "title": null, "description": null, "countryId": null, "countryName": null, "url": "http://www.alfredgrindingroom.com/", "pinterest": null, "facebook": null, "instagram": null, "artaxis": null, "paypal": null}, "is_patron": 1, "material_image_count": 345, "createdAt": "2019-02-07T13:46:17", "updatedAt": "2022-04-14T18:56:35"}, "createdByUserId": 7337, "createdAt": "2019-02-19T16:01:54", "createdAtHuman": "19 Feb 2019", "createdAtDiff": "5 years ago", "updatedAt": "2019-02-19T16:01:54", "updatedAtHuman": "19 Feb 2019", "updatedAtDiff": "5 years ago"}, {"id": 10119, "materialId": 30892, "title": "V.C. Lavender Mamo", "description": "", "ortonConeId": 34, "atmosphereId": 3, "is_color_searchable": 1, "dominantRgbR": 56, "dominantRgbG": 54, "dominantRgbB": 68, "dominantHexColor": "383644", "secondaryRgbR": 143, "secondaryRgbG": 138, "secondaryRgbB": 181, "secondaryHexColor": "8f8ab5", "filename": "30892.5c6c287f365cc.jpg", "isPrivate": false, "createdByUser": {"id": 7337, "name": "Alfred Grinding Room - Glazes", "locale": "en", "profile": {"username": "alfredgrindingroom", "title": null, "description": null, "countryId": null, "countryName": null, "url": "http://www.alfredgrindingroom.com/", "pinterest": null, "facebook": null, "instagram": null, "artaxis": null, "paypal": null}, "is_patron": 1, "material_image_count": 345, "createdAt": "2019-02-07T13:46:17", "updatedAt": "2022-04-14T18:56:35"}, "createdByUserId": 7337, "createdAt": "2019-02-19T16:02:08", "createdAtHuman": "19 Feb 2019", "createdAtDiff": "5 years ago", "updatedAt": "2019-02-19T16:02:08", "updatedAtHuman": "19 Feb 2019", "updatedAtDiff": "5 years ago"}, {"id": 96523, "materialId": 30892, "title": null, "description": "on porcelain, sprayed exterior, poured interior. No colorants. ", "ortonConeId": 34, "atmosphereId": 3, "is_color_searchable": 1, "dominantRgbR": 188, "dominantRgbG": 176, "dominantRgbB": 155, "dominantHexColor": "bcb09b", "secondaryRgbR": 242, "secondaryRgbG": 234, "secondaryRgbB": 215, "secondaryHexColor": "f2ead7", "filename": "30892.6472d4f69026c.jpg", "isPrivate": false, "createdByUser": {"id": 46946, "name": "Rist", "locale": "en", "profile": {"username": "rist", "title": null, "description": "B.F.A. in Ceramics from Cleveland Institute of Art\nM.S. in Anthropology from Minnesota State University\nM.A. Ceramics - In progress, Minnesota State University", "avatar": "/uploads/profiles/07/xs_7007.641c8e920a39d.png", "countryId": null, "countryName": null, "url": null, "pinterest": null, "facebook": null, "instagram": "rist.art", "artaxis": null, "paypal": "https://www.paypal.com/donate/?business=FMAPB8BCDTS9A&no_recurring=0&currency_code=USD"}, "is_patron": 0, "material_image_count": 147, "createdAt": "2023-03-21T04:10:21", "updatedAt": "2024-03-21T16:40:00"}, "createdByUserId": 46946, "createdAt": "2023-05-28T04:13:43", "createdAtHuman": "28 May 2023", "createdAtDiff": "1 year ago", "updatedAt": "2023-05-28T04:14:04", "updatedAtHuman": "28 May 2023", "updatedAtDiff": "1 year ago"}, {"id": 96524, "materialId": 30892, "title": null, "description": "on porcelain, sprayed exterior, poured interior. No colorants.", "ortonConeId": 34, "atmosphereId": 3, "is_color_searchable": 1, "dominantRgbR": 168, "dominantRgbG": 161, "dominantRgbB": 136, "dominantHexColor": "a8a188", "secondaryRgbR": 205, "secondaryRgbG": 198, "secondaryRgbB": 175, "secondaryHexColor": "cdc6af", "filename": "30892.6472d51ab9e7b.jpg", "isPrivate": false, "createdByUser": {"id": 46946, "name": "Rist", "locale": "en", "profile": {"username": "rist", "title": null, "description": "B.F.A. in Ceramics from Cleveland Institute of Art\nM.S. in Anthropology from Minnesota State University\nM.A. Ceramics - In progress, Minnesota State University", "avatar": "/uploads/profiles/07/xs_7007.641c8e920a39d.png", "countryId": null, "countryName": null, "url": null, "pinterest": null, "facebook": null, "instagram": "rist.art", "artaxis": null, "paypal": "https://www.paypal.com/donate/?business=FMAPB8BCDTS9A&no_recurring=0&currency_code=USD"}, "is_patron": 0, "material_image_count": 147, "createdAt": "2023-03-21T04:10:21", "updatedAt": "2024-03-21T16:40:00"}, "createdByUserId": 46946, "createdAt": "2023-05-28T04:14:19", "createdAtHuman": "28 May 2023", "createdAtDiff": "1 year ago", "updatedAt": "2023-05-28T04:18:27", "updatedAtHuman": "28 May 2023", "updatedAtDiff": "1 year ago"}], "thumbnail": {"id": 10118, "materialId": 30892, "title": "V.C. Lavender Mamo", "description": "", "ortonConeId": 34, "atmosphereId": 1, "is_color_searchable": 1, "dominantRgbR": 46, "dominantRgbG": 47, "dominantRgbB": 63, "dominantHexColor": "2e2f3f", "secondaryRgbR": 136, "secondaryRgbG": 134, "secondaryRgbB": 139, "secondaryHexColor": "88868b", "filename": "30892.5c6c28714e982.jpg", "isPrivate": false, "createdByUser": {"id": 7337, "name": "Alfred Grinding Room - Glazes", "locale": "en", "profile": {"username": "alfredgrindingroom", "title": null, "description": null, "countryId": null, "countryName": null, "url": "http://www.alfredgrindingroom.com/", "pinterest": null, "facebook": null, "instagram": null, "artaxis": null, "paypal": null}, "is_patron": 1, "material_image_count": 345, "createdAt": "2019-02-07T13:46:17", "updatedAt": "2022-04-14T18:56:35"}, "createdByUserId": 7337, "createdAt": "2019-02-19T16:01:54", "createdAtHuman": "19 Feb 2019", "createdAtDiff": "5 years ago", "updatedAt": "2019-02-19T16:01:54", "updatedAtHuman": "19 Feb 2019", "updatedAtDiff": "5 years ago"}, "reviews": [], "comments": [{"id": 14539, "parentId": null, "materialId": 30892, "userId": 29039, "content": null, "filename": "30892.629e0c0296388.jpg", "user": {"id": 29039, "name": "Aditi", "locale": "en", "profile": null, "is_patron": 0, "material_image_count": 0, "createdAt": "2021-09-17T06:10:52", "updatedAt": "2023-11-20T17:12:33"}, "createdAt": "2022-06-06T14:15:31", "createdAtHuman": "06 Jun 2022", "createdAtDiff": "2 years ago", "updatedAt": "2022-06-06T14:15:31", "updatedAtHuman": "06 Jun 2022", "updatedAtDiff": "2 years ago"}], "translations": [{"id": 25250, "name": "V.C. Lavender Mamo", "other_names": null, "description": null, "locale": "en"}], "createdByUser": {"id": 7337, "name": "Alfred Grinding Room - Glazes", "locale": "en", "profile": {"username": "alfredgrindingroom", "title": null, "description": null, "countryId": null, "countryName": null, "url": "http://www.alfredgrindingroom.com/", "pinterest": null, "facebook": null, "instagram": null, "artaxis": null, "paypal": null}, "is_patron": 1, "material_image_count": 345, "createdAt": "2019-02-07T13:46:17", "updatedAt": "2022-04-14T18:56:35"}}}