{"data": {"id": 30904, "parentId": null, "children": [], "siblings": [], "revisionParentId": null, "revisionChildren": [], "name": "Mamo White Matt", "otherNames": null, "formula": null, "description": null, "isAnalysis": false, "isPrimitive": false, "isArchived": true, "default_locale": "en", "materialStateId": 2, "materialStateName": "Production", "materialTypeId": 480, "baseTypeId": 460, "materialType": {"id": 480, "parentMaterialType": {"id": 460, "parentMaterialType": {"id": 100}}}, "fromOrtonConeId": 33, "fromOrtonConeName": "9", "toOrtonConeId": 33, "toOrtonConeName": "9", "surfaceTypeId": 1, "surfaceTypeName": "Matte", "transparencyTypeId": 2, "transparencyTypeName": "Semi-opaque", "kilnSchedule": null, "waterAmount": null, "specificGravity": null, "thumbnailId": 10128, "ratingTotal": 0, "ratingNumber": 0, "ratingAverage": "0.00", "isPrivate": false, "createdByUserId": 7337, "createdAt": "2019-02-19T16:23:33", "createdAtHuman": "19 Feb 2019", "createdAtDiff": "5 years ago", "updatedAt": "2024-01-22T19:20:08", "updatedAtHuman": "22 Jan 2024", "updatedAtDiff": "8 months ago", "materialComponentTotalAmount": 100, "atmospheres": [{"id": 1, "name": "Oxidation"}, {"id": 3, "name": "Reduction"}], "materialComponents": [{"percentageAmount": "25.0000", "isAdditional": false, "material": {"id": 15131, "name": "Custer Feldspar", "isAnalysis": false, "isPrimitive": true, "isPrivate": false, "isArchived": true, "materialStateId": 2, "analysis": {"percentageAnalysis": {"SiO2": "68.5000", "Al2O3": "17.0000", "Na2O": "3.0000", "K2O": "10.0000", "CaO": "0.3000", "Fe2O3": "0.1000", "loi": "0.3000"}, "umfAnalysis": {"SiO2": "7.1291", "Al2O3": "1.0426", "Na2O": "0.3027", "K2O": "0.6639", "CaO": "0.0335", "Fe2O3": "0.0039", "SiO2Al2O3Ratio": "6.8377", "R2OTotal": "0.9665", "ROTotal": "0.0335"}, "xUmfAnalysis": {"SiO2": "7.1013", "Al2O3": "1.0386", "Na2O": "0.3015", "K2O": "0.6613", "CaO": "0.0333", "Fe2O3": "0.0039", "SiO2Al2O3Ratio": "6.8377", "SiO2xAl2O3Ratio": "6.8377", "xAl2O3": "1.0386", "R2OTotal": "0.9628", "ROTotal": "0.0372"}, "molPercentageAnalysis": {"SiO2": "77.6960", "Al2O3": "11.3629", "Na2O": "3.2988", "K2O": "7.2351", "CaO": "0.3646", "Fe2O3": "0.0427"}, "formulaAnalysis": {"SiO2": "7.1291", "Al2O3": "1.0426", "Na2O": "0.3027", "K2O": "0.6639", "CaO": "0.0335", "Fe2O3": "0.0039"}, "thermalExpansion": "8.0853", "weight": "0.0000", "oxideWeight": "618.4544"}, "thumbnail": {"id": 4934, "materialId": 15131, "title": "", "filename": "15131.5a6ba1781bbce.jpg", "createdByUserId": 1, "createdAtDiff": "6 years ago"}}}, {"percentageAmount": "25.0000", "isAdditional": false, "material": {"id": 15470, "name": "Minspar 200", "isAnalysis": false, "isPrimitive": true, "isPrivate": false, "isArchived": true, "materialStateId": 2, "analysis": {"percentageAnalysis": {"SiO2": "68.9053", "Al2O3": "18.5819", "Na2O": "6.5292", "K2O": "4.1181", "CaO": "1.5065", "Fe2O3": "0.0590", "loi": "0.3000"}, "umfAnalysis": {"SiO2": "6.5185", "Al2O3": "1.0359", "Na2O": "0.5988", "K2O": "0.2485", "CaO": "0.1527", "Fe2O3": "0.0021", "SiO2Al2O3Ratio": "6.2926", "R2OTotal": "0.8473", "ROTotal": "0.1527"}, "xUmfAnalysis": {"SiO2": "6.5049", "Al2O3": "1.0337", "Na2O": "0.5975", "K2O": "0.2480", "CaO": "0.1524", "Fe2O3": "0.0021", "SiO2Al2O3Ratio": "6.2926", "SiO2xAl2O3Ratio": "6.2926", "xAl2O3": "1.0337", "R2OTotal": "0.8455", "ROTotal": "0.1545"}, "molPercentageAnalysis": {"SiO2": "76.1819", "Al2O3": "12.1066", "Na2O": "6.9981", "K2O": "2.9042", "CaO": "1.7846", "Fe2O3": "0.0245"}, "formulaAnalysis": {"SiO2": "6.5185", "Al2O3": "1.0359", "Na2O": "0.5988", "K2O": "0.2485", "CaO": "0.1527", "Fe2O3": "0.0021"}, "thermalExpansion": "7.7258", "weight": "0.0000", "oxideWeight": "566.7070"}, "thumbnail": {"id": 16822, "materialId": 15470, "title": null, "filename": "15470.5de7d0a880076.jpg", "createdByUserId": 7, "createdAtDiff": "4 years ago"}}}, {"percentageAmount": "20.0000", "isAdditional": false, "material": {"id": 15135, "name": "Dolomite", "isAnalysis": false, "isPrimitive": true, "isPrivate": false, "isArchived": true, "materialStateId": 2, "analysis": {"percentageAnalysis": {"MgO": "21.9081", "CaO": "30.4819", "loi": "47.6100"}, "umfAnalysis": {"MgO": "0.5000", "CaO": "0.5000", "SiO2Al2O3Ratio": "0.0000", "R2OTotal": "0.0000", "ROTotal": "1.0000"}, "xUmfAnalysis": {"MgO": "0.5000", "CaO": "0.5000", "SiO2Al2O3Ratio": "0.0000", "SiO2xAl2O3Ratio": null, "xAl2O3": null, "R2OTotal": "0.0000", "ROTotal": "1.0000"}, "molPercentageAnalysis": {"MgO": "50.0000", "CaO": "50.0000"}, "formulaAnalysis": {"MgO": "0.5000", "CaO": "0.5000"}, "thermalExpansion": "9.6983", "weight": "96.3900", "oxideWeight": "96.3823"}, "thumbnail": {"id": 4892, "materialId": 15135, "title": "", "filename": "15135.5a6a6b56886ec.jpg", "createdByUserId": 1, "createdAtDiff": "6 years ago"}}}, {"percentageAmount": "15.0000", "isAdditional": false, "material": {"id": 15094, "name": "Calcined Kaolin", "isAnalysis": false, "isPrimitive": true, "isPrivate": false, "isArchived": true, "materialStateId": 2, "analysis": {"percentageAnalysis": {"SiO2": "54.0984", "Al2O3": "45.9016", "loi": "0.0000"}, "umfAnalysis": {"SiO2Al2O3Ratio": "0.0000", "R2OTotal": "0.0000", "ROTotal": "0.0000"}, "xUmfAnalysis": {"SiO2Al2O3Ratio": "0.0000", "SiO2xAl2O3Ratio": null, "xAl2O3": null, "R2OTotal": "0.0000", "ROTotal": "0.0000"}, "molPercentageAnalysis": {"SiO2": "66.6664", "Al2O3": "33.3336"}, "formulaAnalysis": {"SiO2": "2.0000", "Al2O3": "1.0000"}, "thermalExpansion": "4.7852", "weight": "222.2200", "oxideWeight": "222.1302"}, "thumbnail": {"id": 4886, "materialId": 15094, "title": "", "filename": "15094.5a6a6ae46b67e.jpg", "createdByUserId": 1, "createdAtDiff": "6 years ago"}}}, {"percentageAmount": "10.0000", "isAdditional": false, "material": {"id": 15137, "name": "EP Kaolin", "isAnalysis": false, "isPrimitive": true, "isPrivate": false, "isArchived": true, "materialStateId": 2, "analysis": {"percentageAnalysis": {"SiO2": "45.7270", "Al2O3": "37.3603", "Na2O": "0.0681", "K2O": "0.3451", "MgO": "0.1034", "CaO": "0.1849", "P2O5": "0.2601", "TiO2": "0.3804", "Fe2O3": "0.7607", "loi": "14.8100"}, "umfAnalysis": {"SiO2": "71.6261", "Al2O3": "34.4859", "Na2O": "0.1034", "K2O": "0.3448", "MgO": "0.2415", "CaO": "0.3103", "P2O5": "0.1725", "TiO2": "0.4483", "Fe2O3": "0.4483", "SiO2Al2O3Ratio": "2.0770", "R2OTotal": "0.4482", "ROTotal": "0.5518"}, "xUmfAnalysis": {"SiO2": "49.4540", "Al2O3": "23.8106", "Na2O": "0.0714", "K2O": "0.2381", "MgO": "0.1667", "CaO": "0.2143", "P2O5": "0.1191", "TiO2": "0.3095", "Fe2O3": "0.3096", "SiO2Al2O3Ratio": "2.0770", "SiO2xAl2O3Ratio": "2.0503", "xAl2O3": "24.1202", "R2OTotal": "0.3095", "ROTotal": "0.6905"}, "molPercentageAnalysis": {"SiO2": "66.2095", "Al2O3": "31.8779", "Na2O": "0.0956", "K2O": "0.3187", "MgO": "0.2232", "CaO": "0.2869", "P2O5": "0.1594", "TiO2": "0.4144", "Fe2O3": "0.4144"}, "formulaAnalysis": {"SiO2": "2.0770", "Al2O3": "1.0000", "Na2O": "0.0030", "K2O": "0.0100", "MgO": "0.0070", "CaO": "0.0090", "P2O5": "0.0050", "TiO2": "0.0130", "Fe2O3": "0.0130"}, "thermalExpansion": "5.0178", "weight": "0.0000", "oxideWeight": "232.4953"}, "thumbnail": {"id": 4952, "materialId": 15137, "title": "", "filename": "15137.5a6ba32627dcd.jpg", "createdByUserId": 1, "createdAtDiff": "6 years ago"}}}, {"percentageAmount": "5.0000", "isAdditional": false, "material": {"id": 15457, "name": "Whiting", "isAnalysis": false, "isPrimitive": true, "isPrivate": false, "isArchived": true, "materialStateId": 2, "analysis": {"percentageAnalysis": {"CaO": "56.1000", "loi": "43.9000"}, "umfAnalysis": {"CaO": "1.0000", "SiO2Al2O3Ratio": "0.0000", "R2OTotal": "0.0000", "ROTotal": "1.0000"}, "xUmfAnalysis": {"CaO": "1.0000", "SiO2Al2O3Ratio": "0.0000", "SiO2xAl2O3Ratio": null, "xAl2O3": null, "R2OTotal": "0.0000", "ROTotal": "1.0000"}, "molPercentageAnalysis": {"CaO": "100.0000"}, "formulaAnalysis": {"CaO": "1.0000"}, "thermalExpansion": "14.8000", "weight": "99.9590", "oxideWeight": "56.0770"}, "thumbnail": {"id": 16835, "materialId": 15457, "title": null, "filename": "15457.5de7d47035ff4.jpg", "createdByUserId": 7, "createdAtDiff": "4 years ago"}}}], "analysis": {"percentageAnalysis": {"SiO2": "47.0388", "Al2O3": "19.5167", "Na2O": "2.3891", "K2O": "3.5640", "MgO": "4.3920", "CaO": "9.3715", "P2O5": "0.0260", "TiO2": "0.0380", "Fe2O3": "0.1158", "loi": "13.3480"}, "umfAnalysis": {"SiO2": "2.2211", "Al2O3": "0.5431", "Na2O": "0.1094", "K2O": "0.1073", "MgO": "0.3092", "CaO": "0.4741", "P2O5": "0.0005", "TiO2": "0.0013", "Fe2O3": "0.0021", "SiO2Al2O3Ratio": "4.0899", "R2OTotal": "0.2167", "ROTotal": "0.7833"}, "xUmfAnalysis": {"SiO2": "2.2165", "Al2O3": "0.5419", "Na2O": "0.1091", "K2O": "0.1071", "MgO": "0.3085", "CaO": "0.4732", "P2O5": "0.0005", "TiO2": "0.0013", "Fe2O3": "0.0021", "SiO2Al2O3Ratio": "4.0899", "SiO2xAl2O3Ratio": "4.0798", "xAl2O3": "0.5433", "R2OTotal": "0.2163", "ROTotal": "0.7837"}, "molPercentageAnalysis": {"SiO2": "58.9448", "Al2O3": "14.4122", "Na2O": "2.9023", "K2O": "2.8488", "MgO": "8.2048", "CaO": "12.5829", "P2O5": "0.0138", "TiO2": "0.0359", "Fe2O3": "0.0546"}, "formulaAnalysis": {"SiO2": "0.7829", "Al2O3": "0.1914", "Na2O": "0.0385", "K2O": "0.0378", "MgO": "0.1090", "CaO": "0.1671", "P2O5": "0.0002", "TiO2": "0.0005", "Fe2O3": "0.0007"}, "thermalExpansion": "7.5201", "weight": null, "oxideWeight": null}, "images": [{"id": 10128, "materialId": 30904, "title": "Mamo White Matt", "description": "", "ortonConeId": 34, "atmosphereId": 1, "is_color_searchable": 1, "dominantRgbR": 160, "dominantRgbG": 158, "dominantRgbB": 156, "dominantHexColor": "a09e9c", "secondaryRgbR": 18, "secondaryRgbG": 18, "secondaryRgbB": 19, "secondaryHexColor": "121213", "filename": "30904.5c6c2d99dd2d4.jpg", "isPrivate": false, "createdByUser": {"id": 7337, "name": "Alfred Grinding Room - Glazes", "locale": "en", "profile": {"username": "alfredgrindingroom", "title": null, "description": null, "countryId": null, "countryName": null, "url": "http://www.alfredgrindingroom.com/", "pinterest": null, "facebook": null, "instagram": null, "artaxis": null, "paypal": null}, "is_patron": 1, "material_image_count": 345, "createdAt": "2019-02-07T13:46:17", "updatedAt": "2022-04-14T18:56:35"}, "createdByUserId": 7337, "createdAt": "2019-02-19T16:23:54", "createdAtHuman": "19 Feb 2019", "createdAtDiff": "5 years ago", "updatedAt": "2019-02-19T16:23:54", "updatedAtHuman": "19 Feb 2019", "updatedAtDiff": "5 years ago"}, {"id": 10129, "materialId": 30904, "title": "Mamo White Matt", "description": "", "ortonConeId": 34, "atmosphereId": 3, "is_color_searchable": 1, "dominantRgbR": 89, "dominantRgbG": 87, "dominantRgbB": 85, "dominantHexColor": "595755", "secondaryRgbR": 221, "secondaryRgbG": 218, "secondaryRgbB": 211, "secondaryHexColor": "dddad3", "filename": "30904.5c6c2da80b0b3.jpg", "isPrivate": false, "createdByUser": {"id": 7337, "name": "Alfred Grinding Room - Glazes", "locale": "en", "profile": {"username": "alfredgrindingroom", "title": null, "description": null, "countryId": null, "countryName": null, "url": "http://www.alfredgrindingroom.com/", "pinterest": null, "facebook": null, "instagram": null, "artaxis": null, "paypal": null}, "is_patron": 1, "material_image_count": 345, "createdAt": "2019-02-07T13:46:17", "updatedAt": "2022-04-14T18:56:35"}, "createdByUserId": 7337, "createdAt": "2019-02-19T16:24:08", "createdAtHuman": "19 Feb 2019", "createdAtDiff": "5 years ago", "updatedAt": "2019-02-19T16:24:08", "updatedAtHuman": "19 Feb 2019", "updatedAtDiff": "5 years ago"}, {"id": 88738, "materialId": 30904, "title": "On Sheffield 20231. Over four different dark slips. Fired flat with 5.5hr slow cool.", "description": "The surface texture is a little stonier than what I'd prefer, well-fired but still dry and catching to the touch. The slips all contain a mix of colorant oxides but from top to bottom the heaviest colorant is chrome, cobalt, iron, and manganese.", "ortonConeId": 35, "atmosphereId": 1, "is_color_searchable": 1, "dominantRgbR": 189, "dominantRgbG": 187, "dominantRgbB": 177, "dominantHexColor": "bdbbb1", "secondaryRgbR": 78, "secondaryRgbG": 67, "secondaryRgbB": 52, "secondaryHexColor": "4e4334", "filename": "30904.640a4208664a1.jpg", "isPrivate": false, "createdByUser": {"id": 27058, "name": "Josh Kopin", "locale": "en", "profile": {"username": "jbkcc", "title": null, "description": null, "countryId": null, "countryName": null, "url": null, "pinterest": null, "facebook": null, "instagram": null, "artaxis": null, "paypal": null}, "is_patron": 1, "material_image_count": 206, "createdAt": "2021-06-21T06:20:53", "updatedAt": "2024-09-30T18:09:39"}, "createdByUserId": 27058, "createdAt": "2023-03-09T20:31:05", "createdAtHuman": "09 Mar 2023", "createdAtDiff": "1 year ago", "updatedAt": "2023-03-09T20:31:05", "updatedAtHuman": "09 Mar 2023", "updatedAtDiff": "1 year ago"}, {"id": 118803, "materialId": 30904, "title": null, "description": "on porcelain", "ortonConeId": 34, "atmosphereId": 3, "dominantRgbR": 214, "dominantRgbG": 206, "dominantRgbB": 190, "dominantHexColor": "d6cebe", "secondaryRgbR": 169, "secondaryRgbG": 157, "secondaryRgbB": 135, "secondaryHexColor": "a99d87", "filename": "30904.65aebfe7ddf17.jpg", "isPrivate": false, "createdByUser": {"id": 5083, "name": "WIU CERAMICS", "locale": "en", "profile": {"username": "wiuceramics", "title": null, "description": null, "avatar": "/uploads/profiles/54/xs_1554.5b765d0453d21.jpg", "countryId": null, "countryName": null, "url": null, "pinterest": null, "facebook": "", "instagram": "wiuceramics", "artaxis": null, "paypal": null}, "is_patron": 1, "material_image_count": 118, "createdAt": "2018-05-17T23:41:58", "updatedAt": "2024-09-23T13:18:58"}, "createdByUserId": 5083, "createdAt": "2024-01-22T19:20:08", "createdAtHuman": "22 Jan 2024", "createdAtDiff": "8 months ago", "updatedAt": "2024-01-22T19:20:16", "updatedAtHuman": "22 Jan 2024", "updatedAtDiff": "8 months ago"}], "thumbnail": {"id": 10128, "materialId": 30904, "title": "Mamo White Matt", "description": "", "ortonConeId": 34, "atmosphereId": 1, "is_color_searchable": 1, "dominantRgbR": 160, "dominantRgbG": 158, "dominantRgbB": 156, "dominantHexColor": "a09e9c", "secondaryRgbR": 18, "secondaryRgbG": 18, "secondaryRgbB": 19, "secondaryHexColor": "121213", "filename": "30904.5c6c2d99dd2d4.jpg", "isPrivate": false, "createdByUser": {"id": 7337, "name": "Alfred Grinding Room - Glazes", "locale": "en", "profile": {"username": "alfredgrindingroom", "title": null, "description": null, "countryId": null, "countryName": null, "url": "http://www.alfredgrindingroom.com/", "pinterest": null, "facebook": null, "instagram": null, "artaxis": null, "paypal": null}, "is_patron": 1, "material_image_count": 345, "createdAt": "2019-02-07T13:46:17", "updatedAt": "2022-04-14T18:56:35"}, "createdByUserId": 7337, "createdAt": "2019-02-19T16:23:54", "createdAtHuman": "19 Feb 2019", "createdAtDiff": "5 years ago", "updatedAt": "2019-02-19T16:23:54", "updatedAtHuman": "19 Feb 2019", "updatedAtDiff": "5 years ago"}, "reviews": [], "comments": [], "translations": [{"id": 25262, "name": "Mamo White Matt", "other_names": null, "description": null, "locale": "en"}], "createdByUser": {"id": 7337, "name": "Alfred Grinding Room - Glazes", "locale": "en", "profile": {"username": "alfredgrindingroom", "title": null, "description": null, "countryId": null, "countryName": null, "url": "http://www.alfredgrindingroom.com/", "pinterest": null, "facebook": null, "instagram": null, "artaxis": null, "paypal": null}, "is_patron": 1, "material_image_count": 345, "createdAt": "2019-02-07T13:46:17", "updatedAt": "2022-04-14T18:56:35"}}}