{"data": {"id": 31077, "parentId": null, "children": [], "siblings": [], "revisionParentId": null, "revisionChildren": [], "name": "V.C. Satin Doll Black - Rev.", "otherNames": null, "formula": null, "description": null, "isAnalysis": false, "isPrimitive": false, "isArchived": true, "default_locale": "en", "materialStateId": 2, "materialStateName": "Production", "materialTypeId": 880, "baseTypeId": 460, "materialType": {"id": 880, "parentMaterialType": {"id": 460, "parentMaterialType": {"id": 100}}}, "fromOrtonConeId": 34, "fromOrtonConeName": "10", "toOrtonConeId": 34, "toOrtonConeName": "10", "surfaceTypeId": 6, "surfaceTypeName": "Satin", "kilnSchedule": null, "waterAmount": null, "specificGravity": null, "thumbnailId": 10207, "ratingTotal": 0, "ratingNumber": 0, "ratingAverage": "0.00", "isPrivate": false, "createdByUserId": 7337, "createdAt": "2019-02-21T15:30:51", "createdAtHuman": "21 Feb 2019", "createdAtDiff": "5 years ago", "updatedAt": "2023-07-23T18:25:56", "updatedAtHuman": "23 Jul 2023", "updatedAtDiff": "1 year ago", "materialComponentTotalAmount": 107, "atmospheres": [{"id": 1, "name": "Oxidation"}, {"id": 3, "name": "Reduction"}], "materialComponents": [{"percentageAmount": "40.0000", "isAdditional": false, "material": {"id": 15389, "name": "Redart", "isAnalysis": false, "isPrimitive": true, "isPrivate": false, "isArchived": true, "materialStateId": 2, "analysis": {"percentageAnalysis": {"SiO2": "64.9509", "Al2O3": "15.5101", "Na2O": "0.3800", "K2O": "4.1496", "MgO": "1.5898", "CaO": "0.2602", "P2O5": "0.2202", "TiO2": "1.0898", "Fe2O3": "7.0494", "loi": "4.8000"}, "umfAnalysis": {"SiO2": "11.4670", "Al2O3": "1.6137", "Na2O": "0.0650", "K2O": "0.4673", "MgO": "0.4184", "CaO": "0.0492", "P2O5": "0.0165", "TiO2": "0.1447", "Fe2O3": "0.4683", "SiO2Al2O3Ratio": "7.1062", "R2OTotal": "0.5323", "ROTotal": "0.4677"}, "xUmfAnalysis": {"SiO2": "7.8098", "Al2O3": "1.0990", "Na2O": "0.0443", "K2O": "0.3183", "MgO": "0.2850", "CaO": "0.0335", "P2O5": "0.0112", "TiO2": "0.0986", "Fe2O3": "0.3189", "SiO2Al2O3Ratio": "7.1062", "SiO2xAl2O3Ratio": "6.5212", "xAl2O3": "1.1976", "R2OTotal": "0.3626", "ROTotal": "0.6374"}, "molPercentageAnalysis": {"SiO2": "77.9530", "Al2O3": "10.9697", "Na2O": "0.4421", "K2O": "3.1768", "MgO": "2.8445", "CaO": "0.3346", "P2O5": "0.1119", "TiO2": "0.9840", "Fe2O3": "3.1834"}, "formulaAnalysis": {"SiO2": "7.1062", "Al2O3": "1.0000", "Na2O": "0.0403", "K2O": "0.2896", "MgO": "0.2593", "CaO": "0.0305", "P2O5": "0.0102", "TiO2": "0.0897", "Fe2O3": "0.2902"}, "thermalExpansion": "6.1859", "weight": "0.0000", "oxideWeight": "625.8308"}, "thumbnail": {"id": 4981, "materialId": 15389, "title": "", "filename": "15389.5a6ba566acd71.jpg", "createdByUserId": 1, "createdAtDiff": "6 years ago"}}}, {"percentageAmount": "15.0000", "isAdditional": false, "material": {"id": 15608, "name": "Amtalc-C98 Talc", "isAnalysis": false, "isPrimitive": true, "isPrivate": false, "isArchived": true, "materialStateId": 2, "analysis": {"percentageAnalysis": {"SiO2": "53.5000", "Al2O3": "0.3000", "K2O": "0.3000", "MgO": "29.5000", "CaO": "3.5000", "TiO2": "0.1000", "Fe2O3": "0.5000", "loi": "12.0000"}, "umfAnalysis": {"SiO2": "1.1164", "Al2O3": "0.0037", "K2O": "0.0040", "MgO": "0.9177", "CaO": "0.0783", "TiO2": "0.0016", "Fe2O3": "0.0039", "SiO2Al2O3Ratio": "302.6220", "R2OTotal": "0.0040", "ROTotal": "0.9960"}, "xUmfAnalysis": {"SiO2": "1.1121", "Al2O3": "0.0037", "K2O": "0.0040", "MgO": "0.9142", "CaO": "0.0780", "TiO2": "0.0016", "Fe2O3": "0.0039", "SiO2Al2O3Ratio": "302.6220", "SiO2xAl2O3Ratio": "212.2844", "xAl2O3": "0.0052", "R2OTotal": "0.0040", "ROTotal": "0.9960"}, "molPercentageAnalysis": {"SiO2": "52.5230", "Al2O3": "0.1736", "K2O": "0.1879", "MgO": "43.1753", "CaO": "3.6817", "TiO2": "0.0739", "Fe2O3": "0.1847"}, "formulaAnalysis": {"SiO2": "1.1164", "Al2O3": "0.0037", "K2O": "0.0040", "MgO": "0.9177", "CaO": "0.0783", "TiO2": "0.0016", "Fe2O3": "0.0039"}, "thermalExpansion": "3.8228", "weight": "0.0000", "oxideWeight": "109.9650"}, "thumbnail": null}}, {"percentageAmount": "15.0000", "isAdditional": false, "material": {"id": 16050, "name": "Neph Sye A270", "isAnalysis": false, "isPrimitive": true, "isPrivate": false, "isArchived": true, "materialStateId": 2, "analysis": {"percentageAnalysis": {"SiO2": "60.2000", "Al2O3": "23.6000", "Na2O": "10.4000", "K2O": "4.8500", "MgO": "0.0200", "CaO": "0.3900", "Fe2O3": "0.0800", "loi": "0.5000"}, "umfAnalysis": {"SiO2": "4.4188", "Al2O3": "1.0208", "Na2O": "0.7401", "K2O": "0.2271", "MgO": "0.0022", "CaO": "0.0307", "Fe2O3": "0.0022", "SiO2Al2O3Ratio": "4.3287", "R2OTotal": "0.9671", "ROTotal": "0.0329"}, "xUmfAnalysis": {"SiO2": "4.4091", "Al2O3": "1.0186", "Na2O": "0.7384", "K2O": "0.2266", "MgO": "0.0022", "CaO": "0.0306", "Fe2O3": "0.0022", "SiO2Al2O3Ratio": "4.3287", "SiO2xAl2O3Ratio": "4.3287", "xAl2O3": "1.0186", "R2OTotal": "0.9650", "ROTotal": "0.0350"}, "molPercentageAnalysis": {"SiO2": "68.5954", "Al2O3": "15.8468", "Na2O": "11.4882", "K2O": "3.5251", "MgO": "0.0340", "CaO": "0.4762", "Fe2O3": "0.0343"}, "formulaAnalysis": {"SiO2": "4.4188", "Al2O3": "1.0208", "Na2O": "0.7401", "K2O": "0.2271", "MgO": "0.0022", "CaO": "0.0307", "Fe2O3": "0.0022"}, "thermalExpansion": "9.3351", "weight": "0.0000", "oxideWeight": "439.0088"}, "thumbnail": {"id": 24171, "materialId": 16050, "title": null, "filename": "16050.5edd51cde24b6.jpg", "createdByUserId": 8949, "createdAtDiff": "4 years ago"}}}, {"percentageAmount": "10.0000", "isAdditional": false, "material": {"id": 15062, "name": "Barium Carbonate", "isAnalysis": false, "isPrimitive": true, "isPrivate": false, "isArchived": true, "materialStateId": 2, "analysis": {"percentageAnalysis": {"BaO": "77.6600", "loi": "22.3400"}, "umfAnalysis": {"BaO": "1.0000", "SiO2Al2O3Ratio": "0.0000", "R2OTotal": "0.0000", "ROTotal": "1.0000"}, "xUmfAnalysis": {"BaO": "1.0000", "SiO2Al2O3Ratio": "0.0000", "SiO2xAl2O3Ratio": null, "xAl2O3": null, "R2OTotal": "0.0000", "ROTotal": "1.0000"}, "molPercentageAnalysis": {"BaO": "100.0000"}, "formulaAnalysis": {"BaO": "1.0000"}, "thermalExpansion": "12.9000", "weight": "153.3000", "oxideWeight": "153.3271"}, "thumbnail": {"id": 4881, "materialId": 15062, "title": "", "filename": "15062.5a6a6a1f3f446.jpg", "createdByUserId": 1, "createdAtDiff": "6 years ago"}}}, {"percentageAmount": "10.0000", "isAdditional": false, "material": {"id": 15400, "name": "Silica", "isAnalysis": false, "isPrimitive": true, "isPrivate": false, "isArchived": true, "materialStateId": 2, "analysis": {"percentageAnalysis": {"SiO2": "100.0000", "loi": "0.0000"}, "umfAnalysis": {"SiO2Al2O3Ratio": "0.0000", "R2OTotal": "0.0000", "ROTotal": "0.0000"}, "xUmfAnalysis": {"SiO2Al2O3Ratio": "0.0000", "SiO2xAl2O3Ratio": null, "xAl2O3": null, "R2OTotal": "0.0000", "ROTotal": "0.0000"}, "molPercentageAnalysis": {"SiO2": "100.0000"}, "formulaAnalysis": {"SiO2": "1.0000"}, "thermalExpansion": "3.5000", "weight": "60.1000", "oxideWeight": "60.0844"}, "thumbnail": {"id": 4900, "materialId": 15400, "title": "", "filename": "15400.5a6a6c135b2e7.jpg", "createdByUserId": 1, "createdAtDiff": "6 years ago"}}}, {"percentageAmount": "10.0000", "isAdditional": false, "material": {"id": 15457, "name": "Whiting", "isAnalysis": false, "isPrimitive": true, "isPrivate": false, "isArchived": true, "materialStateId": 2, "analysis": {"percentageAnalysis": {"CaO": "56.1000", "loi": "43.9000"}, "umfAnalysis": {"CaO": "1.0000", "SiO2Al2O3Ratio": "0.0000", "R2OTotal": "0.0000", "ROTotal": "1.0000"}, "xUmfAnalysis": {"CaO": "1.0000", "SiO2Al2O3Ratio": "0.0000", "SiO2xAl2O3Ratio": null, "xAl2O3": null, "R2OTotal": "0.0000", "ROTotal": "1.0000"}, "molPercentageAnalysis": {"CaO": "100.0000"}, "formulaAnalysis": {"CaO": "1.0000"}, "thermalExpansion": "14.8000", "weight": "99.9590", "oxideWeight": "56.0770"}, "thumbnail": {"id": 16835, "materialId": 15457, "title": null, "filename": "15457.5de7d47035ff4.jpg", "createdByUserId": 7, "createdAtDiff": "4 years ago"}}}, {"percentageAmount": "2.0000", "isAdditional": true, "material": {"id": 15114, "name": "Cobalt Carbonate", "isAnalysis": false, "isPrimitive": true, "isPrivate": false, "isArchived": true, "materialStateId": 2, "analysis": {"percentageAnalysis": {"CoO": "63.0000", "loi": "37.0000"}, "umfAnalysis": {"SiO2Al2O3Ratio": "0.0000", "R2OTotal": "0.0000", "ROTotal": "0.0000"}, "xUmfAnalysis": {"CoO": "1.0000", "SiO2Al2O3Ratio": "0.0000", "SiO2xAl2O3Ratio": null, "xAl2O3": null, "R2OTotal": "0.0000", "ROTotal": "1.0000"}, "molPercentageAnalysis": {"CoO": "100.0000"}, "formulaAnalysis": {"CoO": "1.0000"}, "thermalExpansion": "0.0000", "weight": "74.9200", "oxideWeight": "74.9326"}, "thumbnail": {"id": 16810, "materialId": 15114, "title": null, "filename": "15114.5de7cbf779cf3.jpg", "createdByUserId": 7, "createdAtDiff": "4 years ago"}}}, {"percentageAmount": "2.0000", "isAdditional": true, "material": {"id": 15336, "name": "Manganese Dioxide", "isAnalysis": false, "isPrimitive": true, "isPrivate": false, "isArchived": true, "materialStateId": 2, "analysis": {"percentageAnalysis": {"MnO2": "86.9000", "loi": "13.1000"}, "umfAnalysis": {"SiO2Al2O3Ratio": "0.0000", "R2OTotal": "0.0000", "ROTotal": "0.0000"}, "xUmfAnalysis": {"MnO2": "1.0000", "SiO2Al2O3Ratio": "0.0000", "SiO2xAl2O3Ratio": null, "xAl2O3": null, "R2OTotal": "0.0000", "ROTotal": "1.0000"}, "molPercentageAnalysis": {"MnO2": "100.0000"}, "formulaAnalysis": {"MnO2": "1.0000"}, "thermalExpansion": "5.0000", "weight": "86.9000", "oxideWeight": "86.9369"}, "thumbnail": {"id": 9641, "materialId": 15336, "title": "", "filename": "15336.5c5c8f8fc07d8.jpg", "createdByUserId": 1, "createdAtDiff": "5 years ago"}}}, {"percentageAmount": "2.0000", "isAdditional": true, "material": {"id": 15387, "name": "Red Iron Oxide", "isAnalysis": false, "isPrimitive": true, "isPrivate": false, "isArchived": true, "materialStateId": 2, "analysis": {"percentageAnalysis": {"Fe2O3": "95.0000", "loi": "5.0000"}, "umfAnalysis": {"SiO2Al2O3Ratio": "0.0000", "R2OTotal": "0.0000", "ROTotal": "0.0000"}, "xUmfAnalysis": {"Fe2O3": "1.0000", "SiO2Al2O3Ratio": "0.0000", "SiO2xAl2O3Ratio": null, "xAl2O3": null, "R2OTotal": "0.0000", "ROTotal": "1.0000"}, "molPercentageAnalysis": {"Fe2O3": "100.0000"}, "formulaAnalysis": {"Fe2O3": "1.0000"}, "thermalExpansion": "12.5000", "weight": "0.0000", "oxideWeight": "159.6887"}, "thumbnail": {"id": 4896, "materialId": 15387, "title": "", "filename": "15387.5a6a6bb002155.jpg", "createdByUserId": 1, "createdAtDiff": "6 years ago"}}}, {"percentageAmount": "1.0000", "isAdditional": true, "material": {"id": 15108, "name": "Chrome Oxide", "isAnalysis": false, "isPrimitive": true, "isPrivate": false, "isArchived": true, "materialStateId": 2, "analysis": {"percentageAnalysis": {"Cr2O3": "100.0000", "loi": "0.0000"}, "umfAnalysis": {"SiO2Al2O3Ratio": "0.0000", "R2OTotal": "0.0000", "ROTotal": "0.0000"}, "xUmfAnalysis": {"SiO2Al2O3Ratio": "0.0000", "SiO2xAl2O3Ratio": null, "xAl2O3": null, "R2OTotal": "0.0000", "ROTotal": "0.0000"}, "molPercentageAnalysis": {"Cr2O3": "100.0000"}, "formulaAnalysis": {"Cr2O3": "1.0000"}, "thermalExpansion": "0.0000", "weight": "152.0000", "oxideWeight": "151.9906"}, "thumbnail": {"id": 4947, "materialId": 15108, "title": "", "filename": "15108.5a6ba2ae62ceb.jpg", "createdByUserId": 1, "createdAtDiff": "6 years ago"}}}], "analysis": {"percentageAnalysis": {"SiO2": "49.5658", "Al2O3": "9.1486", "Na2O": "1.6000", "K2O": "2.2732", "MgO": "4.7326", "CaO": "5.8856", "BaO": "7.2579", "P2O5": "0.0823", "TiO2": "0.4214", "Cr2O3": "0.9346", "MnO2": "1.6243", "Fe2O3": "4.4923", "CoO": "1.1776", "loi": "10.7673"}, "umfAnalysis": {"SiO2": "2.5806", "Al2O3": "0.2807", "Na2O": "0.0808", "K2O": "0.0755", "MgO": "0.3673", "CaO": "0.3283", "BaO": "0.1481", "P2O5": "0.0018", "TiO2": "0.0165", "Cr2O3": "0.0192", "MnO2": "0.0584", "Fe2O3": "0.0880", "CoO": "0.0492", "SiO2Al2O3Ratio": "9.1938", "R2OTotal": "0.1563", "ROTotal": "0.8437"}, "xUmfAnalysis": {"SiO2": "2.1584", "Al2O3": "0.2348", "Na2O": "0.0675", "K2O": "0.0631", "MgO": "0.3072", "CaO": "0.2746", "BaO": "0.1239", "P2O5": "0.0015", "TiO2": "0.0138", "Cr2O3": "0.0161", "MnO2": "0.0489", "Fe2O3": "0.0736", "CoO": "0.0411", "SiO2Al2O3Ratio": "9.1938", "SiO2xAl2O3Ratio": "8.6831", "xAl2O3": "0.2486", "R2OTotal": "0.1307", "ROTotal": "0.8693"}, "molPercentageAnalysis": {"SiO2": "63.0267", "Al2O3": "6.8554", "Na2O": "1.9724", "K2O": "1.8438", "MgO": "8.9715", "CaO": "8.0189", "BaO": "3.6167", "P2O5": "0.0443", "TiO2": "0.4031", "Cr2O3": "0.4698", "MnO2": "1.4275", "Fe2O3": "2.1493", "CoO": "1.2007"}, "formulaAnalysis": {"SiO2": "0.8249", "Al2O3": "0.0897", "Na2O": "0.0258", "K2O": "0.0241", "MgO": "0.1174", "CaO": "0.1050", "BaO": "0.0473", "P2O5": "0.0006", "TiO2": "0.0053", "Cr2O3": "0.0061", "MnO2": "0.0187", "Fe2O3": "0.0281", "CoO": "0.0157"}, "thermalExpansion": "7.0817", "weight": null, "oxideWeight": null}, "images": [{"id": 10207, "materialId": 31077, "title": "V.C. Satin Doll Black - Rev.", "description": "", "ortonConeId": 34, "atmosphereId": 1, "is_color_searchable": 1, "dominantRgbR": 17, "dominantRgbG": 17, "dominantRgbB": 17, "dominantHexColor": "111111", "secondaryRgbR": 131, "secondaryRgbG": 130, "secondaryRgbB": 133, "secondaryHexColor": "838285", "filename": "31077.5c6ec446a4284.jpg", "isPrivate": false, "createdByUser": {"id": 7337, "name": "Alfred Grinding Room - Glazes", "locale": "en", "profile": {"username": "alfredgrindingroom", "title": null, "description": null, "countryId": null, "countryName": null, "url": "http://www.alfredgrindingroom.com/", "pinterest": null, "facebook": null, "instagram": null, "artaxis": null, "paypal": null}, "is_patron": 1, "material_image_count": 345, "createdAt": "2019-02-07T13:46:17", "updatedAt": "2022-04-14T18:56:35"}, "createdByUserId": 7337, "createdAt": "2019-02-21T15:31:19", "createdAtHuman": "21 Feb 2019", "createdAtDiff": "5 years ago", "updatedAt": "2019-02-21T15:31:19", "updatedAtHuman": "21 Feb 2019", "updatedAtDiff": "5 years ago"}, {"id": 10208, "materialId": 31077, "title": "V.C. Satin Doll Black - Rev.", "description": "", "ortonConeId": 34, "atmosphereId": 3, "is_color_searchable": 1, "dominantRgbR": 20, "dominantRgbG": 20, "dominantRgbB": 20, "dominantHexColor": "141414", "secondaryRgbR": 130, "secondaryRgbG": 129, "secondaryRgbB": 134, "secondaryHexColor": "828186", "filename": "31077.5c6ec453a075c.jpg", "isPrivate": false, "createdByUser": {"id": 7337, "name": "Alfred Grinding Room - Glazes", "locale": "en", "profile": {"username": "alfredgrindingroom", "title": null, "description": null, "countryId": null, "countryName": null, "url": "http://www.alfredgrindingroom.com/", "pinterest": null, "facebook": null, "instagram": null, "artaxis": null, "paypal": null}, "is_patron": 1, "material_image_count": 345, "createdAt": "2019-02-07T13:46:17", "updatedAt": "2022-04-14T18:56:35"}, "createdByUserId": 7337, "createdAt": "2019-02-21T15:31:32", "createdAtHuman": "21 Feb 2019", "createdAtDiff": "5 years ago", "updatedAt": "2019-02-21T15:31:32", "updatedAtHuman": "21 Feb 2019", "updatedAtDiff": "5 years ago"}], "thumbnail": {"id": 10207, "materialId": 31077, "title": "V.C. Satin Doll Black - Rev.", "description": "", "ortonConeId": 34, "atmosphereId": 1, "is_color_searchable": 1, "dominantRgbR": 17, "dominantRgbG": 17, "dominantRgbB": 17, "dominantHexColor": "111111", "secondaryRgbR": 131, "secondaryRgbG": 130, "secondaryRgbB": 133, "secondaryHexColor": "838285", "filename": "31077.5c6ec446a4284.jpg", "isPrivate": false, "createdByUser": {"id": 7337, "name": "Alfred Grinding Room - Glazes", "locale": "en", "profile": {"username": "alfredgrindingroom", "title": null, "description": null, "countryId": null, "countryName": null, "url": "http://www.alfredgrindingroom.com/", "pinterest": null, "facebook": null, "instagram": null, "artaxis": null, "paypal": null}, "is_patron": 1, "material_image_count": 345, "createdAt": "2019-02-07T13:46:17", "updatedAt": "2022-04-14T18:56:35"}, "createdByUserId": 7337, "createdAt": "2019-02-21T15:31:19", "createdAtHuman": "21 Feb 2019", "createdAtDiff": "5 years ago", "updatedAt": "2019-02-21T15:31:19", "updatedAtHuman": "21 Feb 2019", "updatedAtDiff": "5 years ago"}, "reviews": [], "comments": [{"id": 18782, "parentId": null, "materialId": 31077, "userId": 31977, "content": "The Stull map predicts this as landing in the glossy region.  With a 9.19:1 silica alumina ratio, is this effectively an under-fired gloss glaze?  That said, SiO2 and Al2O3 levels both seem pretty low.  \r\nI know this is an OG school/community studio glaze, maybe there are insights. ", "filename": null, "user": {"id": 31977, "name": "Eric VanderMolen", "locale": "en", "profile": null, "is_patron": 0, "material_image_count": 0, "createdAt": "2021-12-15T17:18:26", "updatedAt": "2022-03-24T23:02:57"}, "createdAt": "2023-07-19T17:07:57", "createdAtHuman": "19 Jul 2023", "createdAtDiff": "1 year ago", "updatedAt": "2023-07-19T17:07:57", "updatedAtHuman": "19 Jul 2023", "updatedAtDiff": "1 year ago"}, {"id": 18810, "parentId": 18782, "materialId": 31077, "userId": 15323, "content": "Eric VanderMolen \r\nI haven't used this particular glaze, but the high CaO and MgO will make this a crystalline matte. It should not be underfired.", "filename": null, "user": {"id": 15323, "name": "Ben", "locale": "en", "profile": {"username": "tinkerandthink", "title": "Potter, educator, and video creator. Tinker & Think on YouTube", "description": null, "avatar": "/uploads/profiles/29/xs_5829.647875ad8945e.png", "countryId": null, "countryName": null, "url": "benshane.com", "pinterest": null, "facebook": null, "instagram": "tinkerandthink", "artaxis": null, "paypal": null}, "is_patron": 1, "material_image_count": 75, "createdAt": "2020-03-25T20:25:05", "updatedAt": "2024-10-03T05:55:43"}, "createdAt": "2023-07-23T18:25:56", "createdAtHuman": "23 Jul 2023", "createdAtDiff": "1 year ago", "updatedAt": "2023-07-23T18:25:56", "updatedAtHuman": "23 Jul 2023", "updatedAtDiff": "1 year ago"}], "translations": [{"id": 25403, "name": "V.C. Satin Doll Black - Rev.", "other_names": null, "description": null, "locale": "en"}], "createdByUser": {"id": 7337, "name": "Alfred Grinding Room - Glazes", "locale": "en", "profile": {"username": "alfredgrindingroom", "title": null, "description": null, "countryId": null, "countryName": null, "url": "http://www.alfredgrindingroom.com/", "pinterest": null, "facebook": null, "instagram": null, "artaxis": null, "paypal": null}, "is_patron": 1, "material_image_count": 345, "createdAt": "2019-02-07T13:46:17", "updatedAt": "2022-04-14T18:56:35"}}}