{"data": {"id": 31669, "parentId": null, "children": [], "siblings": [], "revisionParentId": null, "revisionChildren": [], "name": "V.C. Vampire Red", "otherNames": null, "formula": null, "description": null, "isAnalysis": false, "isPrimitive": false, "isArchived": true, "default_locale": "en", "materialStateId": 2, "materialStateName": "Production", "materialTypeId": 640, "baseTypeId": 460, "materialType": {"id": 640, "parentMaterialType": {"id": 635, "parentMaterialType": {"id": 460, "parentMaterialType": {"id": 100}}}}, "fromOrtonConeId": 34, "fromOrtonConeName": "10", "toOrtonConeId": 34, "toOrtonConeName": "10", "surfaceTypeId": 8, "surfaceTypeName": "Glossy", "kilnSchedule": null, "waterAmount": null, "specificGravity": null, "thumbnailId": 10418, "ratingTotal": 5, "ratingNumber": 1, "ratingAverage": "5.00", "isPrivate": false, "createdByUserId": 7337, "createdAt": "2019-02-28T14:26:11", "createdAtHuman": "28 Feb 2019", "createdAtDiff": "5 years ago", "updatedAt": "2023-09-19T17:54:51", "updatedAtHuman": "19 Sep 2023", "updatedAtDiff": "1 year ago", "materialComponentTotalAmount": 103.5, "atmospheres": [{"id": 1, "name": "Oxidation"}, {"id": 3, "name": "Reduction"}], "materialComponents": [{"percentageAmount": "28.0000", "isAdditional": false, "material": {"id": 15400, "name": "Silica", "isAnalysis": false, "isPrimitive": true, "isPrivate": false, "isArchived": true, "materialStateId": 2, "analysis": {"percentageAnalysis": {"SiO2": "100.0000", "loi": "0.0000"}, "umfAnalysis": {"SiO2Al2O3Ratio": "0.0000", "R2OTotal": "0.0000", "ROTotal": "0.0000"}, "xUmfAnalysis": {"SiO2Al2O3Ratio": "0.0000", "SiO2xAl2O3Ratio": null, "xAl2O3": null, "R2OTotal": "0.0000", "ROTotal": "0.0000"}, "molPercentageAnalysis": {"SiO2": "100.0000"}, "formulaAnalysis": {"SiO2": "1.0000"}, "thermalExpansion": "3.5000", "weight": "60.1000", "oxideWeight": "60.0844"}, "thumbnail": {"id": 4900, "materialId": 15400, "title": "", "filename": "15400.5a6a6c135b2e7.jpg", "createdByUserId": 1, "createdAtDiff": "6 years ago"}}}, {"percentageAmount": "26.0000", "isAdditional": false, "material": {"id": 15936, "name": "Mahavir Potash Feldspar", "isAnalysis": false, "isPrimitive": true, "isPrivate": false, "isArchived": true, "materialStateId": 2, "analysis": {"percentageAnalysis": {"SiO2": "67.0000", "Al2O3": "17.5000", "Na2O": "3.0000", "K2O": "11.5000", "MgO": "0.1500", "CaO": "0.1500", "Fe2O3": "0.0800", "loi": "0.5000"}, "umfAnalysis": {"SiO2": "6.3040", "Al2O3": "0.9703", "Na2O": "0.2736", "K2O": "0.6902", "MgO": "0.0210", "CaO": "0.0151", "Fe2O3": "0.0028", "SiO2Al2O3Ratio": "6.4969", "R2OTotal": "0.9638", "ROTotal": "0.0362"}, "xUmfAnalysis": {"SiO2": "6.2862", "Al2O3": "0.9676", "Na2O": "0.2729", "K2O": "0.6882", "MgO": "0.0210", "CaO": "0.0151", "Fe2O3": "0.0028", "SiO2Al2O3Ratio": "6.4969", "SiO2xAl2O3Ratio": "6.4969", "xAl2O3": "0.9676", "R2OTotal": "0.9611", "ROTotal": "0.0389"}, "molPercentageAnalysis": {"SiO2": "76.1615", "Al2O3": "11.7228", "Na2O": "3.3060", "K2O": "8.3386", "MgO": "0.2542", "CaO": "0.1827", "Fe2O3": "0.0342"}, "formulaAnalysis": {"SiO2": "6.3040", "Al2O3": "0.9703", "Na2O": "0.2736", "K2O": "0.6902", "MgO": "0.0210", "CaO": "0.0151", "Fe2O3": "0.0028"}, "thermalExpansion": "8.5038", "weight": "0.0000", "oxideWeight": "561.8313"}, "thumbnail": {"id": 16820, "materialId": 15936, "title": null, "filename": "15936.5de7d03b6b41c.jpg", "createdByUserId": 7, "createdAtDiff": "4 years ago"}}}, {"percentageAmount": "16.0000", "isAdditional": false, "material": {"id": 15457, "name": "Whiting", "isAnalysis": false, "isPrimitive": true, "isPrivate": false, "isArchived": true, "materialStateId": 2, "analysis": {"percentageAnalysis": {"CaO": "56.1000", "loi": "43.9000"}, "umfAnalysis": {"CaO": "1.0000", "SiO2Al2O3Ratio": "0.0000", "R2OTotal": "0.0000", "ROTotal": "1.0000"}, "xUmfAnalysis": {"CaO": "1.0000", "SiO2Al2O3Ratio": "0.0000", "SiO2xAl2O3Ratio": null, "xAl2O3": null, "R2OTotal": "0.0000", "ROTotal": "1.0000"}, "molPercentageAnalysis": {"CaO": "100.0000"}, "formulaAnalysis": {"CaO": "1.0000"}, "thermalExpansion": "14.8000", "weight": "99.9590", "oxideWeight": "56.0770"}, "thumbnail": {"id": 16835, "materialId": 15457, "title": null, "filename": "15457.5de7d47035ff4.jpg", "createdByUserId": 7, "createdAtDiff": "4 years ago"}}}, {"percentageAmount": "12.0000", "isAdditional": false, "material": {"id": 15062, "name": "Barium Carbonate", "isAnalysis": false, "isPrimitive": true, "isPrivate": false, "isArchived": true, "materialStateId": 2, "analysis": {"percentageAnalysis": {"BaO": "77.6600", "loi": "22.3400"}, "umfAnalysis": {"BaO": "1.0000", "SiO2Al2O3Ratio": "0.0000", "R2OTotal": "0.0000", "ROTotal": "1.0000"}, "xUmfAnalysis": {"BaO": "1.0000", "SiO2Al2O3Ratio": "0.0000", "SiO2xAl2O3Ratio": null, "xAl2O3": null, "R2OTotal": "0.0000", "ROTotal": "1.0000"}, "molPercentageAnalysis": {"BaO": "100.0000"}, "formulaAnalysis": {"BaO": "1.0000"}, "thermalExpansion": "12.9000", "weight": "153.3000", "oxideWeight": "153.3271"}, "thumbnail": {"id": 4881, "materialId": 15062, "title": "", "filename": "15062.5a6a6a1f3f446.jpg", "createdByUserId": 1, "createdAtDiff": "6 years ago"}}}, {"percentageAmount": "5.0000", "isAdditional": false, "material": {"id": 15406, "name": "Soda Ash", "isAnalysis": false, "isPrimitive": true, "isPrivate": false, "isArchived": true, "materialStateId": 2, "analysis": {"percentageAnalysis": {"Na2O": "50.0000", "loi": "50.0000"}, "umfAnalysis": {"Na2O": "1.0000", "SiO2Al2O3Ratio": "0.0000", "R2OTotal": "1.0000", "ROTotal": "0.0000"}, "xUmfAnalysis": {"Na2O": "1.0000", "SiO2Al2O3Ratio": "0.0000", "SiO2xAl2O3Ratio": null, "xAl2O3": null, "R2OTotal": "1.0000", "ROTotal": "0.0000"}, "molPercentageAnalysis": {"Na2O": "100.0000"}, "formulaAnalysis": {"Na2O": "1.0000"}, "thermalExpansion": "38.7000", "weight": "124.0000", "oxideWeight": "61.9790"}, "thumbnail": {"id": 4898, "materialId": 15406, "title": "", "filename": "15406.5a6a6bf58f262.jpg", "createdByUserId": 1, "createdAtDiff": "6 years ago"}}}, {"percentageAmount": "5.0000", "isAdditional": false, "material": {"id": 15496, "name": "Fusion Frit 367", "isAnalysis": false, "isPrimitive": true, "isPrivate": false, "isArchived": true, "materialStateId": 2, "analysis": {"percentageAnalysis": {"SiO2": "53.8001", "B2O3": "38.3998", "Na2O": "7.8000", "loi": "0.0000"}, "umfAnalysis": {"SiO2": "7.1149", "B2O3": "4.3827", "Na2O": "1.0000", "SiO2Al2O3Ratio": "0.0000", "R2OTotal": "1.0000", "ROTotal": "0.0000"}, "xUmfAnalysis": {"SiO2": "7.1149", "B2O3": "4.3827", "Na2O": "1.0000", "SiO2Al2O3Ratio": "0.0000", "SiO2xAl2O3Ratio": null, "xAl2O3": null, "R2OTotal": "1.0000", "ROTotal": "0.0000"}, "molPercentageAnalysis": {"SiO2": "56.9299", "B2O3": "35.0686", "Na2O": "8.0015"}, "formulaAnalysis": {"SiO2": "1.6234", "B2O3": "1.0000", "Na2O": "0.2282"}, "thermalExpansion": "6.0920", "weight": "0.0000", "oxideWeight": "794.5975"}, "thumbnail": {"id": 7280, "materialId": 15496, "title": "", "filename": "15496.5ba95875dc2f3.jpg", "createdByUserId": 1, "createdAtDiff": "6 years ago"}}}, {"percentageAmount": "4.0000", "isAdditional": false, "material": {"id": 15137, "name": "EP Kaolin", "isAnalysis": false, "isPrimitive": true, "isPrivate": false, "isArchived": true, "materialStateId": 2, "analysis": {"percentageAnalysis": {"SiO2": "45.7270", "Al2O3": "37.3603", "Na2O": "0.0681", "K2O": "0.3451", "MgO": "0.1034", "CaO": "0.1849", "P2O5": "0.2601", "TiO2": "0.3804", "Fe2O3": "0.7607", "loi": "14.8100"}, "umfAnalysis": {"SiO2": "71.6261", "Al2O3": "34.4859", "Na2O": "0.1034", "K2O": "0.3448", "MgO": "0.2415", "CaO": "0.3103", "P2O5": "0.1725", "TiO2": "0.4483", "Fe2O3": "0.4483", "SiO2Al2O3Ratio": "2.0770", "R2OTotal": "0.4482", "ROTotal": "0.5518"}, "xUmfAnalysis": {"SiO2": "49.4540", "Al2O3": "23.8106", "Na2O": "0.0714", "K2O": "0.2381", "MgO": "0.1667", "CaO": "0.2143", "P2O5": "0.1191", "TiO2": "0.3095", "Fe2O3": "0.3096", "SiO2Al2O3Ratio": "2.0770", "SiO2xAl2O3Ratio": "2.0503", "xAl2O3": "24.1202", "R2OTotal": "0.3095", "ROTotal": "0.6905"}, "molPercentageAnalysis": {"SiO2": "66.2095", "Al2O3": "31.8779", "Na2O": "0.0956", "K2O": "0.3187", "MgO": "0.2232", "CaO": "0.2869", "P2O5": "0.1594", "TiO2": "0.4144", "Fe2O3": "0.4144"}, "formulaAnalysis": {"SiO2": "2.0770", "Al2O3": "1.0000", "Na2O": "0.0030", "K2O": "0.0100", "MgO": "0.0070", "CaO": "0.0090", "P2O5": "0.0050", "TiO2": "0.0130", "Fe2O3": "0.0130"}, "thermalExpansion": "5.0178", "weight": "0.0000", "oxideWeight": "232.4953"}, "thumbnail": {"id": 4952, "materialId": 15137, "title": "", "filename": "15137.5a6ba32627dcd.jpg", "createdByUserId": 1, "createdAtDiff": "6 years ago"}}}, {"percentageAmount": "4.0000", "isAdditional": false, "material": {"id": 15298, "name": "Kentucky OM #4 Ball Clay", "isAnalysis": false, "isPrimitive": true, "isPrivate": false, "isArchived": true, "materialStateId": 2, "analysis": {"percentageAnalysis": {"SiO2": "55.1983", "Al2O3": "27.8995", "Na2O": "0.3002", "K2O": "1.0001", "MgO": "0.4003", "CaO": "0.3008", "TiO2": "1.1998", "Fe2O3": "1.1011", "loi": "12.6000"}, "umfAnalysis": {"SiO2": "29.8688", "Al2O3": "8.8965", "Na2O": "0.1575", "K2O": "0.3452", "MgO": "0.3229", "CaO": "0.1744", "TiO2": "0.4884", "Fe2O3": "0.2242", "SiO2Al2O3Ratio": "3.3574", "R2OTotal": "0.5027", "ROTotal": "0.4973"}, "xUmfAnalysis": {"SiO2": "24.3989", "Al2O3": "7.2673", "Na2O": "0.1286", "K2O": "0.2820", "MgO": "0.2638", "CaO": "0.1425", "TiO2": "0.3990", "Fe2O3": "0.1831", "SiO2Al2O3Ratio": "3.3574", "SiO2xAl2O3Ratio": "3.1826", "xAl2O3": "7.6663", "R2OTotal": "0.4106", "ROTotal": "0.5894"}, "molPercentageAnalysis": {"SiO2": "73.7903", "Al2O3": "21.9787", "Na2O": "0.3891", "K2O": "0.8528", "MgO": "0.7978", "CaO": "0.4309", "TiO2": "1.2067", "Fe2O3": "0.5539"}, "formulaAnalysis": {"SiO2": "3.3574", "Al2O3": "1.0000", "Na2O": "0.0177", "K2O": "0.0388", "MgO": "0.0363", "CaO": "0.0196", "TiO2": "0.0549", "Fe2O3": "0.0252"}, "thermalExpansion": "5.1512", "weight": "0.0000", "oxideWeight": "319.4115"}, "thumbnail": {"id": 4975, "materialId": 15298, "title": "", "filename": "15298.5a6ba4e33fc0c.jpg", "createdByUserId": 1, "createdAtDiff": "6 years ago"}}}, {"percentageAmount": "3.0000", "isAdditional": true, "material": {"id": 15442, "name": "Tin Oxide", "isAnalysis": false, "isPrimitive": true, "isPrivate": false, "isArchived": true, "materialStateId": 2, "analysis": {"percentageAnalysis": {"SnO2": "100.0000", "loi": "0.0000"}, "umfAnalysis": {"SiO2Al2O3Ratio": "0.0000", "R2OTotal": "0.0000", "ROTotal": "0.0000"}, "xUmfAnalysis": {"SnO2": "1.0000", "SiO2Al2O3Ratio": "0.0000", "SiO2xAl2O3Ratio": null, "xAl2O3": null, "R2OTotal": "1.0000", "ROTotal": "0.0000"}, "molPercentageAnalysis": {"SnO2": "100.0000"}, "formulaAnalysis": {"SnO2": "1.0000"}, "thermalExpansion": "2.0000", "weight": "150.7100", "oxideWeight": "150.7096"}, "thumbnail": {"id": 16832, "materialId": 15442, "title": null, "filename": "15442.5de7d4042bb64.jpg", "createdByUserId": 7, "createdAtDiff": "4 years ago"}}}, {"percentageAmount": "0.5000", "isAdditional": true, "material": {"id": 15120, "name": "Copper Carbonate", "isAnalysis": false, "isPrimitive": true, "isPrivate": false, "isArchived": true, "materialStateId": 2, "analysis": {"percentageAnalysis": {"CuO": "64.3800", "loi": "35.6200"}, "umfAnalysis": {"SiO2Al2O3Ratio": "0.0000", "R2OTotal": "0.0000", "ROTotal": "0.0000"}, "xUmfAnalysis": {"CuO": "1.0000", "SiO2Al2O3Ratio": "0.0000", "SiO2xAl2O3Ratio": null, "xAl2O3": null, "R2OTotal": "1.0000", "ROTotal": "0.0000"}, "molPercentageAnalysis": {"CuO": "100.0000"}, "formulaAnalysis": {"CuO": "1.0000"}, "thermalExpansion": "0.0000", "weight": "79.5400", "oxideWeight": "79.5454"}, "thumbnail": {"id": 16812, "materialId": 15120, "title": null, "filename": "15120.5de7cc4e7969f.jpg", "createdByUserId": 7, "createdAtDiff": "4 years ago"}}}], "analysis": {"percentageAnalysis": {"SiO2": "50.3836", "Al2O3": "6.9183", "B2O3": "1.8551", "Na2O": "3.5601", "K2O": "2.9409", "MgO": "0.0571", "CaO": "8.7289", "BaO": "9.0041", "P2O5": "0.0101", "TiO2": "0.0611", "Fe2O3": "0.0921", "CuO": "0.3110", "SnO2": "2.8986", "loi": "13.1491"}, "umfAnalysis": {"SiO2": "2.7542", "Al2O3": "0.2229", "B2O3": "0.0875", "Na2O": "0.1887", "K2O": "0.1025", "MgO": "0.0047", "CaO": "0.5113", "BaO": "0.1929", "P2O5": "0.0002", "TiO2": "0.0025", "Fe2O3": "0.0019", "CuO": "0.0128", "SnO2": "0.0632", "SiO2Al2O3Ratio": "12.3583", "R2OTotal": "0.2912", "ROTotal": "0.7088"}, "xUmfAnalysis": {"SiO2": "2.5551", "Al2O3": "0.2068", "B2O3": "0.0812", "Na2O": "0.1750", "K2O": "0.0951", "MgO": "0.0043", "CaO": "0.4743", "BaO": "0.1789", "P2O5": "0.0002", "TiO2": "0.0023", "Fe2O3": "0.0018", "CuO": "0.0119", "SnO2": "0.0586", "SiO2Al2O3Ratio": "12.3583", "SiO2xAl2O3Ratio": "12.2206", "xAl2O3": "0.2091", "R2OTotal": "0.3407", "ROTotal": "0.6593"}, "molPercentageAnalysis": {"SiO2": "66.4423", "Al2O3": "5.3763", "B2O3": "2.1113", "Na2O": "4.5514", "K2O": "2.4738", "MgO": "0.1124", "CaO": "12.3338", "BaO": "4.6531", "P2O5": "0.0056", "TiO2": "0.0606", "Fe2O3": "0.0457", "CuO": "0.3098", "SnO2": "1.5239"}, "formulaAnalysis": {"SiO2": "0.8385", "Al2O3": "0.0679", "B2O3": "0.0266", "Na2O": "0.0574", "K2O": "0.0312", "MgO": "0.0014", "CaO": "0.1557", "BaO": "0.0587", "P2O5": "0.0001", "TiO2": "0.0008", "Fe2O3": "0.0006", "CuO": "0.0039", "SnO2": "0.0192"}, "thermalExpansion": "8.2251", "weight": null, "oxideWeight": null}, "images": [{"id": 10418, "materialId": 31669, "title": "V.C. Vampire Red", "description": "", "ortonConeId": 34, "atmosphereId": 3, "is_color_searchable": 1, "dominantRgbR": 50, "dominantRgbG": 24, "dominantRgbB": 24, "dominantHexColor": "321818", "secondaryRgbR": 177, "secondaryRgbG": 164, "secondaryRgbB": 151, "secondaryHexColor": "b1a497", "filename": "31669.5c77efd842b43.jpg", "isPrivate": false, "createdByUser": {"id": 7337, "name": "Alfred Grinding Room - Glazes", "locale": "en", "profile": {"username": "alfredgrindingroom", "title": null, "description": null, "countryId": null, "countryName": null, "url": "http://www.alfredgrindingroom.com/", "pinterest": null, "facebook": null, "instagram": null, "artaxis": null, "paypal": null}, "is_patron": 1, "material_image_count": 345, "createdAt": "2019-02-07T13:46:17", "updatedAt": "2022-04-14T18:56:35"}, "createdByUserId": 7337, "createdAt": "2019-02-28T14:27:37", "createdAtHuman": "28 Feb 2019", "createdAtDiff": "5 years ago", "updatedAt": "2019-02-28T14:27:37", "updatedAtHuman": "28 Feb 2019", "updatedAtDiff": "5 years ago"}, {"id": 10419, "materialId": 31669, "title": "V.C. Vampire Red", "description": "", "ortonConeId": 34, "atmosphereId": 1, "is_color_searchable": 1, "dominantRgbR": 51, "dominantRgbG": 55, "dominantRgbB": 50, "dominantHexColor": "333732", "secondaryRgbR": 130, "secondaryRgbG": 138, "secondaryRgbB": 121, "secondaryHexColor": "828a79", "filename": "31669.5c77f0114ca20.jpg", "isPrivate": false, "createdByUser": {"id": 7337, "name": "Alfred Grinding Room - Glazes", "locale": "en", "profile": {"username": "alfredgrindingroom", "title": null, "description": null, "countryId": null, "countryName": null, "url": "http://www.alfredgrindingroom.com/", "pinterest": null, "facebook": null, "instagram": null, "artaxis": null, "paypal": null}, "is_patron": 1, "material_image_count": 345, "createdAt": "2019-02-07T13:46:17", "updatedAt": "2022-04-14T18:56:35"}, "createdByUserId": 7337, "createdAt": "2019-02-28T14:28:34", "createdAtHuman": "28 Feb 2019", "createdAtDiff": "5 years ago", "updatedAt": "2019-02-28T14:28:34", "updatedAtHuman": "28 Feb 2019", "updatedAtDiff": "5 years ago"}, {"id": 76695, "materialId": 31669, "title": null, "description": "With Custer feldspar instead of mahavir and frit 3110", "ortonConeId": 34, "atmosphereId": 3, "is_color_searchable": 1, "dominantRgbR": 54, "dominantRgbG": 26, "dominantRgbB": 21, "dominantHexColor": "361a15", "secondaryRgbR": 165, "secondaryRgbG": 122, "secondaryRgbB": 104, "secondaryHexColor": "a57a68", "filename": "31669.6359543968b13.jpg", "isPrivate": false, "createdByUser": {"id": 6599, "name": "HP Bloomer IV", "locale": "en", "profile": {"username": "bloomerceramics", "title": null, "description": null, "avatar": "/uploads/profiles/94/xs_4494.5fea18520e50e.jpg", "countryId": null, "countryName": null, "url": "www.hpbloomer.com", "pinterest": "HP Bloomer", "facebook": null, "instagram": "hpbloomer", "artaxis": "hp-bloomer", "paypal": "https://www.paypal.com/donate?business=EV5T5GPXQG2EL&currency_code=USD"}, "is_patron": 0, "material_image_count": 1556, "createdAt": "2018-11-16T03:53:12", "updatedAt": "2024-09-07T17:32:59"}, "createdByUserId": 6599, "createdAt": "2022-10-26T15:37:30", "createdAtHuman": "26 Oct 2022", "createdAtDiff": "1 year ago", "updatedAt": "2022-10-26T15:38:58", "updatedAtHuman": "26 Oct 2022", "updatedAtDiff": "1 year ago"}, {"id": 76696, "materialId": 31669, "title": null, "description": null, "ortonConeId": 34, "atmosphereId": 3, "is_color_searchable": 1, "dominantRgbR": 82, "dominantRgbG": 55, "dominantRgbB": 40, "dominantHexColor": "523728", "secondaryRgbR": 177, "secondaryRgbG": 161, "secondaryRgbB": 140, "secondaryHexColor": "b1a18c", "filename": "31669.635954497efde.jpg", "isPrivate": false, "createdByUser": {"id": 6599, "name": "HP Bloomer IV", "locale": "en", "profile": {"username": "bloomerceramics", "title": null, "description": null, "avatar": "/uploads/profiles/94/xs_4494.5fea18520e50e.jpg", "countryId": null, "countryName": null, "url": "www.hpbloomer.com", "pinterest": "HP Bloomer", "facebook": null, "instagram": "hpbloomer", "artaxis": "hp-bloomer", "paypal": "https://www.paypal.com/donate?business=EV5T5GPXQG2EL&currency_code=USD"}, "is_patron": 0, "material_image_count": 1556, "createdAt": "2018-11-16T03:53:12", "updatedAt": "2024-09-07T17:32:59"}, "createdByUserId": 6599, "createdAt": "2022-10-26T15:37:46", "createdAtHuman": "26 Oct 2022", "createdAtDiff": "1 year ago", "updatedAt": "2022-10-26T15:37:46", "updatedAtHuman": "26 Oct 2022", "updatedAtDiff": "1 year ago"}, {"id": 76697, "materialId": 31669, "title": null, "description": null, "ortonConeId": 34, "atmosphereId": 3, "is_color_searchable": 1, "dominantRgbR": 66, "dominantRgbG": 39, "dominantRgbB": 31, "dominantHexColor": "42271f", "secondaryRgbR": 199, "secondaryRgbG": 174, "secondaryRgbB": 148, "secondaryHexColor": "c7ae94", "filename": "31669.6359545a79ad7.jpg", "isPrivate": false, "createdByUser": {"id": 6599, "name": "HP Bloomer IV", "locale": "en", "profile": {"username": "bloomerceramics", "title": null, "description": null, "avatar": "/uploads/profiles/94/xs_4494.5fea18520e50e.jpg", "countryId": null, "countryName": null, "url": "www.hpbloomer.com", "pinterest": "HP Bloomer", "facebook": null, "instagram": "hpbloomer", "artaxis": "hp-bloomer", "paypal": "https://www.paypal.com/donate?business=EV5T5GPXQG2EL&currency_code=USD"}, "is_patron": 0, "material_image_count": 1556, "createdAt": "2018-11-16T03:53:12", "updatedAt": "2024-09-07T17:32:59"}, "createdByUserId": 6599, "createdAt": "2022-10-26T15:38:03", "createdAtHuman": "26 Oct 2022", "createdAtDiff": "1 year ago", "updatedAt": "2022-10-26T15:38:03", "updatedAtHuman": "26 Oct 2022", "updatedAtDiff": "1 year ago"}], "thumbnail": {"id": 10418, "materialId": 31669, "title": "V.C. Vampire Red", "description": "", "ortonConeId": 34, "atmosphereId": 3, "is_color_searchable": 1, "dominantRgbR": 50, "dominantRgbG": 24, "dominantRgbB": 24, "dominantHexColor": "321818", "secondaryRgbR": 177, "secondaryRgbG": 164, "secondaryRgbB": 151, "secondaryHexColor": "b1a497", "filename": "31669.5c77efd842b43.jpg", "isPrivate": false, "createdByUser": {"id": 7337, "name": "Alfred Grinding Room - Glazes", "locale": "en", "profile": {"username": "alfredgrindingroom", "title": null, "description": null, "countryId": null, "countryName": null, "url": "http://www.alfredgrindingroom.com/", "pinterest": null, "facebook": null, "instagram": null, "artaxis": null, "paypal": null}, "is_patron": 1, "material_image_count": 345, "createdAt": "2019-02-07T13:46:17", "updatedAt": "2022-04-14T18:56:35"}, "createdByUserId": 7337, "createdAt": "2019-02-28T14:27:37", "createdAtHuman": "28 Feb 2019", "createdAtDiff": "5 years ago", "updatedAt": "2019-02-28T14:27:37", "updatedAtHuman": "28 Feb 2019", "updatedAtDiff": "5 years ago"}, "reviews": [{"id": 1719, "materialId": 31669, "userId": 32405, "title": null, "description": "Worked well for me. I applied it thick, being used to SiC reds, but actually it works best quite thin. I subbed in FF3124.", "rating": 5, "user": {"id": 32405, "name": "Journeyman", "locale": "en", "profile": {"username": null, "title": null, "description": null, "countryId": null, "countryName": null, "url": null, "pinterest": null, "facebook": null, "instagram": null, "artaxis": null, "paypal": null}, "is_patron": 1, "material_image_count": 121, "createdAt": "2022-01-04T20:11:05", "updatedAt": "2023-11-14T14:39:44"}, "createdAt": "2023-09-19T17:53:28", "createdAtHuman": "19 Sep 2023", "createdAtDiff": "1 year ago", "updatedAt": "2023-09-19T17:54:51", "updatedAtHuman": "19 Sep 2023", "updatedAtDiff": "1 year ago"}], "comments": [{"id": 3783, "parentId": null, "materialId": 31669, "userId": 9728, "content": "Is this recipe correct?  What is the function of soda ash here, just for deflocculation?\n\nI was interesed in recreating this glaze without Frit 3185 because its discontinued and I've been playing with alternate ingredients.  \n\nHowever, compared to the original (which I took from the Britt high fire book) the r2o and si/al ratios are very different to whats going on here?\n\nhere is a link for comparison-\nhttps://glazy.org/recipes/78164", "filename": "", "user": {"id": 9728, "name": "Redneck Paycheck", "locale": "en", "profile": {"username": null, "title": null, "description": null, "avatar": "/uploads/profiles/82/xs_3382.5d50be6885b6c.jpg", "countryId": null, "countryName": null, "url": "mypotsare.forsale", "pinterest": null, "facebook": "nick.klofkorn", "instagram": "redneckpaycheck", "artaxis": null, "paypal": null}, "is_patron": 1, "material_image_count": 101, "createdAt": "2019-06-15T16:49:54", "updatedAt": "2020-10-31T23:20:21"}, "createdAt": "2020-07-19T14:06:46", "createdAtHuman": "19 Jul 2020", "createdAtDiff": "4 years ago", "updatedAt": "2020-07-19T14:06:46", "updatedAtHuman": "19 Jul 2020", "updatedAtDiff": "4 years ago"}, {"id": 5725, "parentId": null, "materialId": 31669, "userId": 764, "content": "what frit are we subbing for this? too lazy to look/full of turkey", "filename": null, "user": {"id": 764, "name": "Ginger", "locale": "en", "profile": {"username": "ginger", "title": "", "description": "", "avatar": "/uploads/profiles/86/xs_86.58af703235452.png", "countryId": null, "countryName": null, "url": "", "pinterest": "", "facebook": "", "instagram": "", "artaxis": null, "paypal": "https://www.paypal.com/donate?hosted_button_id=4P46AK86ZUZCY"}, "is_patron": 1, "material_image_count": 1407, "createdAt": "2016-01-05T03:25:16", "updatedAt": "2024-08-04T20:27:31"}, "createdAt": "2020-11-28T03:21:37", "createdAtHuman": "28 Nov 2020", "createdAtDiff": "3 years ago", "updatedAt": "2020-11-28T03:21:37", "updatedAtHuman": "28 Nov 2020", "updatedAtDiff": "3 years ago"}, {"id": 5727, "parentId": 5725, "materialId": 31669, "userId": 7, "content": "Ginger Lukas they actually have fusion 367 at alfred.. here's a quick sub using the \"target & solve\" feature using ferro 3124", "filename": "31669.5fc1d021932a7.png", "user": {"id": 7, "name": "Derek Au", "locale": "en", "profile": {"username": "derekau", "title": "The porcelain road is bumpy.", "description": "I'm an American ceramicist who just moved to Philadelphia where I am an Associate Artist at [The Clay Studio](https://www.theclaystudio.org/).  Previously I was a long-term Artist in Residence at the [Red Lodge Clay Center](https://www.redlodgeclaycenter.com/).  Before returning to the US I spent 12 years in Jingdezhen, China making functional porcelain.", "avatar": "/uploads/profiles/1/xs_1.5ff31a2dbb1e6.jpg", "countryId": null, "countryName": null, "url": "www.derekau.net", "pinterest": "", "facebook": "glazyrecipes", "instagram": "glazyorg", "artaxis": "derek-au", "paypal": ""}, "is_patron": 1, "material_image_count": 1666, "createdAt": "2015-08-08T06:37:19", "updatedAt": "2024-10-06T14:34:38"}, "createdAt": "2020-11-28T04:20:50", "createdAtHuman": "28 Nov 2020", "createdAtDiff": "3 years ago", "updatedAt": "2020-11-28T04:20:50", "updatedAtHuman": "28 Nov 2020", "updatedAtDiff": "3 years ago"}, {"id": 5728, "parentId": 5725, "materialId": 31669, "userId": 764, "content": "dang. very cool.", "filename": null, "user": {"id": 764, "name": "Ginger", "locale": "en", "profile": {"username": "ginger", "title": "", "description": "", "avatar": "/uploads/profiles/86/xs_86.58af703235452.png", "countryId": null, "countryName": null, "url": "", "pinterest": "", "facebook": "", "instagram": "", "artaxis": null, "paypal": "https://www.paypal.com/donate?hosted_button_id=4P46AK86ZUZCY"}, "is_patron": 1, "material_image_count": 1407, "createdAt": "2016-01-05T03:25:16", "updatedAt": "2024-08-04T20:27:31"}, "createdAt": "2020-11-28T05:33:18", "createdAtHuman": "28 Nov 2020", "createdAtDiff": "3 years ago", "updatedAt": "2020-11-28T05:33:18", "updatedAtHuman": "28 Nov 2020", "updatedAtDiff": "3 years ago"}], "translations": [{"id": 25906, "name": "V.C. Vampire Red", "other_names": null, "description": null, "locale": "en"}], "createdByUser": {"id": 7337, "name": "Alfred Grinding Room - Glazes", "locale": "en", "profile": {"username": "alfredgrindingroom", "title": null, "description": null, "countryId": null, "countryName": null, "url": "http://www.alfredgrindingroom.com/", "pinterest": null, "facebook": null, "instagram": null, "artaxis": null, "paypal": null}, "is_patron": 1, "material_image_count": 345, "createdAt": "2019-02-07T13:46:17", "updatedAt": "2022-04-14T18:56:35"}}}