{"data": {"id": 31661, "parentId": null, "children": [], "siblings": [], "revisionParentId": null, "revisionChildren": [], "name": "Steve's Blue-Green Celadon", "otherNames": null, "formula": null, "description": null, "isAnalysis": false, "isPrimitive": false, "isArchived": true, "default_locale": "en", "materialStateId": 2, "materialStateName": "Production", "materialTypeId": 510, "baseTypeId": 460, "materialType": {"id": 510, "parentMaterialType": {"id": 500, "parentMaterialType": {"id": 490, "parentMaterialType": {"id": 460, "parentMaterialType": {"id": 100}}}}}, "fromOrtonConeId": 34, "fromOrtonConeName": "10", "toOrtonConeId": 34, "toOrtonConeName": "10", "surfaceTypeId": 8, "surfaceTypeName": "Glossy", "kilnSchedule": null, "waterAmount": null, "specificGravity": null, "thumbnailId": 10406, "ratingTotal": 4, "ratingNumber": 1, "ratingAverage": "4.00", "isPrivate": false, "createdByUserId": 7337, "createdAt": "2019-02-28T14:02:38", "createdAtHuman": "28 Feb 2019", "createdAtDiff": "5 years ago", "updatedAt": "2023-11-02T14:02:08", "updatedAtHuman": "02 Nov 2023", "updatedAtDiff": "11 months ago", "materialComponentTotalAmount": 101, "atmospheres": [{"id": 1, "name": "Oxidation"}, {"id": 3, "name": "Reduction"}], "materialComponents": [{"percentageAmount": "35.0000", "isAdditional": false, "material": {"id": 15470, "name": "Minspar 200", "isAnalysis": false, "isPrimitive": true, "isPrivate": false, "isArchived": true, "materialStateId": 2, "analysis": {"percentageAnalysis": {"SiO2": "68.9053", "Al2O3": "18.5819", "Na2O": "6.5292", "K2O": "4.1181", "CaO": "1.5065", "Fe2O3": "0.0590", "loi": "0.3000"}, "umfAnalysis": {"SiO2": "6.5185", "Al2O3": "1.0359", "Na2O": "0.5988", "K2O": "0.2485", "CaO": "0.1527", "Fe2O3": "0.0021", "SiO2Al2O3Ratio": "6.2926", "R2OTotal": "0.8473", "ROTotal": "0.1527"}, "xUmfAnalysis": {"SiO2": "6.5049", "Al2O3": "1.0337", "Na2O": "0.5975", "K2O": "0.2480", "CaO": "0.1524", "Fe2O3": "0.0021", "SiO2Al2O3Ratio": "6.2926", "SiO2xAl2O3Ratio": "6.2926", "xAl2O3": "1.0337", "R2OTotal": "0.8455", "ROTotal": "0.1545"}, "molPercentageAnalysis": {"SiO2": "76.1819", "Al2O3": "12.1066", "Na2O": "6.9981", "K2O": "2.9042", "CaO": "1.7846", "Fe2O3": "0.0245"}, "formulaAnalysis": {"SiO2": "6.5185", "Al2O3": "1.0359", "Na2O": "0.5988", "K2O": "0.2485", "CaO": "0.1527", "Fe2O3": "0.0021"}, "thermalExpansion": "7.7258", "weight": "0.0000", "oxideWeight": "566.7070"}, "thumbnail": {"id": 16822, "materialId": 15470, "title": null, "filename": "15470.5de7d0a880076.jpg", "createdByUserId": 7, "createdAtDiff": "4 years ago"}}}, {"percentageAmount": "26.0000", "isAdditional": false, "material": {"id": 15400, "name": "Silica", "isAnalysis": false, "isPrimitive": true, "isPrivate": false, "isArchived": true, "materialStateId": 2, "analysis": {"percentageAnalysis": {"SiO2": "100.0000", "loi": "0.0000"}, "umfAnalysis": {"SiO2Al2O3Ratio": "0.0000", "R2OTotal": "0.0000", "ROTotal": "0.0000"}, "xUmfAnalysis": {"SiO2Al2O3Ratio": "0.0000", "SiO2xAl2O3Ratio": null, "xAl2O3": null, "R2OTotal": "0.0000", "ROTotal": "0.0000"}, "molPercentageAnalysis": {"SiO2": "100.0000"}, "formulaAnalysis": {"SiO2": "1.0000"}, "thermalExpansion": "3.5000", "weight": "60.1000", "oxideWeight": "60.0844"}, "thumbnail": {"id": 4900, "materialId": 15400, "title": "", "filename": "15400.5a6a6c135b2e7.jpg", "createdByUserId": 1, "createdAtDiff": "6 years ago"}}}, {"percentageAmount": "14.0000", "isAdditional": false, "material": {"id": 15457, "name": "Whiting", "isAnalysis": false, "isPrimitive": true, "isPrivate": false, "isArchived": true, "materialStateId": 2, "analysis": {"percentageAnalysis": {"CaO": "56.1000", "loi": "43.9000"}, "umfAnalysis": {"CaO": "1.0000", "SiO2Al2O3Ratio": "0.0000", "R2OTotal": "0.0000", "ROTotal": "1.0000"}, "xUmfAnalysis": {"CaO": "1.0000", "SiO2Al2O3Ratio": "0.0000", "SiO2xAl2O3Ratio": null, "xAl2O3": null, "R2OTotal": "0.0000", "ROTotal": "1.0000"}, "molPercentageAnalysis": {"CaO": "100.0000"}, "formulaAnalysis": {"CaO": "1.0000"}, "thermalExpansion": "14.8000", "weight": "99.9590", "oxideWeight": "56.0770"}, "thumbnail": {"id": 16835, "materialId": 15457, "title": null, "filename": "15457.5de7d47035ff4.jpg", "createdByUserId": 7, "createdAtDiff": "4 years ago"}}}, {"percentageAmount": "11.0000", "isAdditional": false, "material": {"id": 15467, "name": "Zinc Oxide", "isAnalysis": false, "isPrimitive": true, "isPrivate": false, "isArchived": true, "materialStateId": 2, "analysis": {"percentageAnalysis": {"ZnO": "100.0000", "loi": "0.0000"}, "umfAnalysis": {"ZnO": "1.0000", "SiO2Al2O3Ratio": "0.0000", "R2OTotal": "0.0000", "ROTotal": "1.0000"}, "xUmfAnalysis": {"ZnO": "1.0000", "SiO2Al2O3Ratio": "0.0000", "SiO2xAl2O3Ratio": null, "xAl2O3": null, "R2OTotal": "0.0000", "ROTotal": "1.0000"}, "molPercentageAnalysis": {"ZnO": "100.0000"}, "formulaAnalysis": {"ZnO": "1.0000"}, "thermalExpansion": "9.4000", "weight": "81.4000", "oxideWeight": "81.3814"}, "thumbnail": {"id": 4913, "materialId": 15467, "title": "", "filename": "15467.5a6a6d5075b6c.jpg", "createdByUserId": 1, "createdAtDiff": "6 years ago"}}}, {"percentageAmount": "9.0000", "isAdditional": false, "material": {"id": 15458, "name": "Wollastonite", "isAnalysis": false, "isPrimitive": true, "isPrivate": false, "isArchived": true, "materialStateId": 2, "analysis": {"percentageAnalysis": {"SiO2": "51.7250", "CaO": "48.2750", "loi": "0.0000"}, "umfAnalysis": {"SiO2": "1.0000", "CaO": "1.0000", "SiO2Al2O3Ratio": "0.0000", "R2OTotal": "0.0000", "ROTotal": "1.0000"}, "xUmfAnalysis": {"SiO2": "1.0000", "CaO": "1.0000", "SiO2Al2O3Ratio": "0.0000", "SiO2xAl2O3Ratio": null, "xAl2O3": null, "R2OTotal": "0.0000", "ROTotal": "1.0000"}, "molPercentageAnalysis": {"SiO2": "49.9998", "CaO": "50.0002"}, "formulaAnalysis": {"SiO2": "1.0000", "CaO": "1.0000"}, "thermalExpansion": "8.9551", "weight": "116.1616", "oxideWeight": "116.1616"}, "thumbnail": {"id": 4909, "materialId": 15458, "title": "", "filename": "15458.5a6a6d2b4e1b0.jpg", "createdByUserId": 1, "createdAtDiff": "6 years ago"}}}, {"percentageAmount": "5.0000", "isAdditional": false, "material": {"id": 15137, "name": "EP Kaolin", "isAnalysis": false, "isPrimitive": true, "isPrivate": false, "isArchived": true, "materialStateId": 2, "analysis": {"percentageAnalysis": {"SiO2": "45.7270", "Al2O3": "37.3603", "Na2O": "0.0681", "K2O": "0.3451", "MgO": "0.1034", "CaO": "0.1849", "P2O5": "0.2601", "TiO2": "0.3804", "Fe2O3": "0.7607", "loi": "14.8100"}, "umfAnalysis": {"SiO2": "71.6261", "Al2O3": "34.4859", "Na2O": "0.1034", "K2O": "0.3448", "MgO": "0.2415", "CaO": "0.3103", "P2O5": "0.1725", "TiO2": "0.4483", "Fe2O3": "0.4483", "SiO2Al2O3Ratio": "2.0770", "R2OTotal": "0.4482", "ROTotal": "0.5518"}, "xUmfAnalysis": {"SiO2": "49.4540", "Al2O3": "23.8106", "Na2O": "0.0714", "K2O": "0.2381", "MgO": "0.1667", "CaO": "0.2143", "P2O5": "0.1191", "TiO2": "0.3095", "Fe2O3": "0.3096", "SiO2Al2O3Ratio": "2.0770", "SiO2xAl2O3Ratio": "2.0503", "xAl2O3": "24.1202", "R2OTotal": "0.3095", "ROTotal": "0.6905"}, "molPercentageAnalysis": {"SiO2": "66.2095", "Al2O3": "31.8779", "Na2O": "0.0956", "K2O": "0.3187", "MgO": "0.2232", "CaO": "0.2869", "P2O5": "0.1594", "TiO2": "0.4144", "Fe2O3": "0.4144"}, "formulaAnalysis": {"SiO2": "2.0770", "Al2O3": "1.0000", "Na2O": "0.0030", "K2O": "0.0100", "MgO": "0.0070", "CaO": "0.0090", "P2O5": "0.0050", "TiO2": "0.0130", "Fe2O3": "0.0130"}, "thermalExpansion": "5.0178", "weight": "0.0000", "oxideWeight": "232.4953"}, "thumbnail": {"id": 4952, "materialId": 15137, "title": "", "filename": "15137.5a6ba32627dcd.jpg", "createdByUserId": 1, "createdAtDiff": "6 years ago"}}}, {"percentageAmount": "1.0000", "isAdditional": true, "material": {"id": 15387, "name": "Red Iron Oxide", "isAnalysis": false, "isPrimitive": true, "isPrivate": false, "isArchived": true, "materialStateId": 2, "analysis": {"percentageAnalysis": {"Fe2O3": "95.0000", "loi": "5.0000"}, "umfAnalysis": {"SiO2Al2O3Ratio": "0.0000", "R2OTotal": "0.0000", "ROTotal": "0.0000"}, "xUmfAnalysis": {"Fe2O3": "1.0000", "SiO2Al2O3Ratio": "0.0000", "SiO2xAl2O3Ratio": null, "xAl2O3": null, "R2OTotal": "0.0000", "ROTotal": "1.0000"}, "molPercentageAnalysis": {"Fe2O3": "100.0000"}, "formulaAnalysis": {"Fe2O3": "1.0000"}, "thermalExpansion": "12.5000", "weight": "0.0000", "oxideWeight": "159.6887"}, "thumbnail": {"id": 4896, "materialId": 15387, "title": "", "filename": "15387.5a6a6bb002155.jpg", "createdByUserId": 1, "createdAtDiff": "6 years ago"}}}], "analysis": {"percentageAnalysis": {"SiO2": "56.4935", "Al2O3": "8.2888", "Na2O": "2.2660", "K2O": "1.4441", "MgO": "0.0051", "CaO": "12.6092", "P2O5": "0.0129", "TiO2": "0.0188", "Fe2O3": "0.9987", "ZnO": "10.8911", "loi": "6.9718"}, "umfAnalysis": {"SiO2": "2.2894", "Al2O3": "0.1979", "Na2O": "0.0890", "K2O": "0.0373", "MgO": "0.0003", "CaO": "0.5475", "P2O5": "0.0002", "TiO2": "0.0006", "Fe2O3": "0.0152", "ZnO": "0.3258", "SiO2Al2O3Ratio": "11.5658", "R2OTotal": "0.1264", "ROTotal": "0.8736"}, "xUmfAnalysis": {"SiO2": "2.2551", "Al2O3": "0.1950", "Na2O": "0.0877", "K2O": "0.0368", "MgO": "0.0003", "CaO": "0.5393", "P2O5": "0.0002", "TiO2": "0.0006", "Fe2O3": "0.0150", "ZnO": "0.3209", "SiO2Al2O3Ratio": "11.5658", "SiO2xAl2O3Ratio": "11.5323", "xAl2O3": "0.1955", "R2OTotal": "0.1245", "ROTotal": "0.8755"}, "molPercentageAnalysis": {"SiO2": "65.3485", "Al2O3": "5.6502", "Na2O": "2.5410", "K2O": "1.0656", "MgO": "0.0088", "CaO": "15.6281", "P2O5": "0.0063", "TiO2": "0.0164", "Fe2O3": "0.4347", "ZnO": "9.3004"}, "formulaAnalysis": {"SiO2": "0.9402", "Al2O3": "0.0813", "Na2O": "0.0366", "K2O": "0.0153", "MgO": "0.0001", "CaO": "0.2249", "P2O5": "0.0001", "TiO2": "0.0002", "Fe2O3": "0.0063", "ZnO": "0.1338"}, "thermalExpansion": "7.3870", "weight": null, "oxideWeight": null}, "images": [{"id": 10406, "materialId": 31661, "title": "Steve's Blue-Green Celadon", "description": "", "ortonConeId": 34, "atmosphereId": 3, "is_color_searchable": 1, "dominantRgbR": 53, "dominantRgbG": 54, "dominantRgbB": 50, "dominantHexColor": "353632", "secondaryRgbR": 172, "secondaryRgbG": 170, "secondaryRgbB": 160, "secondaryHexColor": "acaaa0", "filename": "31661.5c77ea7fa4ac9.jpg", "isPrivate": false, "createdByUser": {"id": 7337, "name": "Alfred Grinding Room - Glazes", "locale": "en", "profile": {"username": "alfredgrindingroom", "title": null, "description": null, "countryId": null, "countryName": null, "url": "http://www.alfredgrindingroom.com/", "pinterest": null, "facebook": null, "instagram": null, "artaxis": null, "paypal": null}, "is_patron": 1, "material_image_count": 345, "createdAt": "2019-02-07T13:46:17", "updatedAt": "2022-04-14T18:56:35"}, "createdByUserId": 7337, "createdAt": "2019-02-28T14:04:48", "createdAtHuman": "28 Feb 2019", "createdAtDiff": "5 years ago", "updatedAt": "2019-02-28T14:04:48", "updatedAtHuman": "28 Feb 2019", "updatedAtDiff": "5 years ago"}, {"id": 10407, "materialId": 31661, "title": "Steve's Blue-Green Celadon", "description": "", "ortonConeId": 34, "atmosphereId": 1, "is_color_searchable": 1, "dominantRgbR": 70, "dominantRgbG": 64, "dominantRgbB": 48, "dominantHexColor": "464030", "secondaryRgbR": 197, "secondaryRgbG": 184, "secondaryRgbB": 149, "secondaryHexColor": "c5b895", "filename": "31661.5c77ea8bcad32.jpg", "isPrivate": false, "createdByUser": {"id": 7337, "name": "Alfred Grinding Room - Glazes", "locale": "en", "profile": {"username": "alfredgrindingroom", "title": null, "description": null, "countryId": null, "countryName": null, "url": "http://www.alfredgrindingroom.com/", "pinterest": null, "facebook": null, "instagram": null, "artaxis": null, "paypal": null}, "is_patron": 1, "material_image_count": 345, "createdAt": "2019-02-07T13:46:17", "updatedAt": "2022-04-14T18:56:35"}, "createdByUserId": 7337, "createdAt": "2019-02-28T14:05:00", "createdAtHuman": "28 Feb 2019", "createdAtDiff": "5 years ago", "updatedAt": "2019-02-28T14:05:00", "updatedAtHuman": "28 Feb 2019", "updatedAtDiff": "5 years ago"}], "thumbnail": {"id": 10406, "materialId": 31661, "title": "Steve's Blue-Green Celadon", "description": "", "ortonConeId": 34, "atmosphereId": 3, "is_color_searchable": 1, "dominantRgbR": 53, "dominantRgbG": 54, "dominantRgbB": 50, "dominantHexColor": "353632", "secondaryRgbR": 172, "secondaryRgbG": 170, "secondaryRgbB": 160, "secondaryHexColor": "acaaa0", "filename": "31661.5c77ea7fa4ac9.jpg", "isPrivate": false, "createdByUser": {"id": 7337, "name": "Alfred Grinding Room - Glazes", "locale": "en", "profile": {"username": "alfredgrindingroom", "title": null, "description": null, "countryId": null, "countryName": null, "url": "http://www.alfredgrindingroom.com/", "pinterest": null, "facebook": null, "instagram": null, "artaxis": null, "paypal": null}, "is_patron": 1, "material_image_count": 345, "createdAt": "2019-02-07T13:46:17", "updatedAt": "2022-04-14T18:56:35"}, "createdByUserId": 7337, "createdAt": "2019-02-28T14:04:48", "createdAtHuman": "28 Feb 2019", "createdAtDiff": "5 years ago", "updatedAt": "2019-02-28T14:04:48", "updatedAtHuman": "28 Feb 2019", "updatedAtDiff": "5 years ago"}, "reviews": [{"id": 1767, "materialId": 31661, "userId": 5575, "title": null, "description": "I did a test of this, cone 10 in reduction, and the result was perfect. However, the wet glaze settles out almost immediately. I end up with a cake of solids at the bottom of the tub. Do you think I should add more kaolin?", "rating": 4, "user": {"id": 5575, "name": "Jeph", "locale": "en", "profile": null, "is_patron": 0, "material_image_count": 0, "createdAt": "2018-07-31T03:09:57", "updatedAt": "2024-02-17T20:54:46"}, "createdAt": "2023-11-02T13:43:24", "createdAtHuman": "02 Nov 2023", "createdAtDiff": "11 months ago", "updatedAt": "2023-11-02T13:43:24", "updatedAtHuman": "02 Nov 2023", "updatedAtDiff": "11 months ago"}], "comments": [{"id": 12029, "parentId": null, "materialId": 31661, "userId": 6709, "content": "Hello world. Would anyone have any clues as to why this has been going green over here? I tried with EPK, went green, then tried with Grolleg, and still went green. Ideas?", "filename": "31661.61dc7e64a019f.jpg", "user": {"id": 6709, "name": "Nathan", "locale": "en", "profile": {"username": null, "title": null, "description": null, "avatar": "/uploads/profiles/98/xs_4598.6014503eb1d64.jpg", "countryId": null, "countryName": null, "url": null, "pinterest": null, "facebook": null, "instagram": "nonathanyes", "artaxis": null, "paypal": null}, "is_patron": 1, "material_image_count": 61, "createdAt": "2018-11-30T06:44:44", "updatedAt": "2023-11-08T00:39:49"}, "createdAt": "2022-01-10T18:43:49", "createdAtHuman": "10 Jan 2022", "createdAtDiff": "2 years ago", "updatedAt": "2022-01-10T18:43:49", "updatedAtHuman": "10 Jan 2022", "updatedAtDiff": "2 years ago"}, {"id": 12030, "parentId": null, "materialId": 31661, "userId": 1157, "content": "oxidation or reduction?", "filename": null, "user": {"id": 1157, "name": "Lauge Brimgiest", "locale": "en", "profile": {"username": "brimgiest", "title": null, "description": null, "avatar": "/uploads/profiles/34/xs_1634.5dd67befd8541.jpg", "countryId": null, "countryName": null, "url": null, "pinterest": null, "facebook": "brimgiest", "instagram": null, "artaxis": null, "paypal": null}, "is_patron": 1, "material_image_count": 828, "createdAt": "2016-05-13T21:40:36", "updatedAt": "2024-10-07T08:28:04"}, "createdAt": "2022-01-10T18:59:08", "createdAtHuman": "10 Jan 2022", "createdAtDiff": "2 years ago", "updatedAt": "2022-01-10T18:59:08", "updatedAtHuman": "10 Jan 2022", "updatedAtDiff": "2 years ago"}, {"id": 12034, "parentId": 12030, "materialId": 31661, "userId": 6709, "content": "Lauge Brimgiest Should have been more clear, Reduction!", "filename": null, "user": {"id": 6709, "name": "Nathan", "locale": "en", "profile": {"username": null, "title": null, "description": null, "avatar": "/uploads/profiles/98/xs_4598.6014503eb1d64.jpg", "countryId": null, "countryName": null, "url": null, "pinterest": null, "facebook": null, "instagram": "nonathanyes", "artaxis": null, "paypal": null}, "is_patron": 1, "material_image_count": 61, "createdAt": "2018-11-30T06:44:44", "updatedAt": "2023-11-08T00:39:49"}, "createdAt": "2022-01-10T20:02:23", "createdAtHuman": "10 Jan 2022", "createdAtDiff": "2 years ago", "updatedAt": "2022-01-10T20:02:23", "updatedAtHuman": "10 Jan 2022", "updatedAtDiff": "2 years ago"}, {"id": 12035, "parentId": 12030, "materialId": 31661, "userId": 1157, "content": "Nathan Then it looks like you didn't reduce enough at the right time. Or that it was in a particular bad spot in the firing. How was the rest of the wares in the firing?", "filename": null, "user": {"id": 1157, "name": "Lauge Brimgiest", "locale": "en", "profile": {"username": "brimgiest", "title": null, "description": null, "avatar": "/uploads/profiles/34/xs_1634.5dd67befd8541.jpg", "countryId": null, "countryName": null, "url": null, "pinterest": null, "facebook": "brimgiest", "instagram": null, "artaxis": null, "paypal": null}, "is_patron": 1, "material_image_count": 828, "createdAt": "2016-05-13T21:40:36", "updatedAt": "2024-10-07T08:28:04"}, "createdAt": "2022-01-10T20:33:38", "createdAtHuman": "10 Jan 2022", "createdAtDiff": "2 years ago", "updatedAt": "2022-01-10T20:33:38", "updatedAtHuman": "10 Jan 2022", "updatedAtDiff": "2 years ago"}, {"id": 12039, "parentId": 12030, "materialId": 31661, "userId": 6709, "content": "Lauge Brimgiest Typically we're reducing at 010 and keeping it light throughout the firing to get the copper reds to come out. I guess this could have been in a bad spot, but just seems odd to me. I'll give it another few tries in the next firing and see what I can learn! Thanks for your help", "filename": null, "user": {"id": 6709, "name": "Nathan", "locale": "en", "profile": {"username": null, "title": null, "description": null, "avatar": "/uploads/profiles/98/xs_4598.6014503eb1d64.jpg", "countryId": null, "countryName": null, "url": null, "pinterest": null, "facebook": null, "instagram": "nonathanyes", "artaxis": null, "paypal": null}, "is_patron": 1, "material_image_count": 61, "createdAt": "2018-11-30T06:44:44", "updatedAt": "2023-11-08T00:39:49"}, "createdAt": "2022-01-10T22:24:57", "createdAtHuman": "10 Jan 2022", "createdAtDiff": "2 years ago", "updatedAt": "2022-01-10T22:24:57", "updatedAtHuman": "10 Jan 2022", "updatedAtDiff": "2 years ago"}, {"id": 12056, "parentId": 12030, "materialId": 31661, "userId": 1157, "content": "Nathan I have always used a fairly heavy reduction for good celadons.\nI'm not well versed in the copper reds but wouldn't do a celadon in the same firing based on the typical firing recommendations for copper reds. ", "filename": null, "user": {"id": 1157, "name": "Lauge Brimgiest", "locale": "en", "profile": {"username": "brimgiest", "title": null, "description": null, "avatar": "/uploads/profiles/34/xs_1634.5dd67befd8541.jpg", "countryId": null, "countryName": null, "url": null, "pinterest": null, "facebook": "brimgiest", "instagram": null, "artaxis": null, "paypal": null}, "is_patron": 1, "material_image_count": 828, "createdAt": "2016-05-13T21:40:36", "updatedAt": "2024-10-07T08:28:04"}, "createdAt": "2022-01-11T19:32:19", "createdAtHuman": "11 Jan 2022", "createdAtDiff": "2 years ago", "updatedAt": "2022-01-11T19:32:19", "updatedAtHuman": "11 Jan 2022", "updatedAtDiff": "2 years ago"}, {"id": 12047, "parentId": null, "materialId": 31661, "userId": 7, "content": "the epk has a bit of titania which doesn't help things, so swapping it for the grolleg was a good bet.  1% rio is quite a bit for a blue celadon.  maybe it does need more heavy reduction.  on the other hand 010 is a pretty early start for celadons.  the recipe is pretty low in si & al, then you have the zinc which might mean your glaze surface is melting over before all the carbon has a chance to escape, or maybe you're missing the reduction window?  i'm not really sure how alfred got such a great result..  maybe next kiln also stick in a fairly fool-proof (and zinc-free) blue celadon like Pinnell's (https://glazy.org/recipes/2894) for comparison?", "filename": null, "user": {"id": 7, "name": "Derek Au", "locale": "en", "profile": {"username": "derekau", "title": "The porcelain road is bumpy.", "description": "I'm an American ceramicist who just moved to Philadelphia where I am an Associate Artist at [The Clay Studio](https://www.theclaystudio.org/).  Previously I was a long-term Artist in Residence at the [Red Lodge Clay Center](https://www.redlodgeclaycenter.com/).  Before returning to the US I spent 12 years in Jingdezhen, China making functional porcelain.", "avatar": "/uploads/profiles/1/xs_1.5ff31a2dbb1e6.jpg", "countryId": null, "countryName": null, "url": "www.derekau.net", "pinterest": "", "facebook": "glazyrecipes", "instagram": "glazyorg", "artaxis": "derek-au", "paypal": ""}, "is_patron": 1, "material_image_count": 1666, "createdAt": "2015-08-08T06:37:19", "updatedAt": "2024-10-06T14:34:38"}, "createdAt": "2022-01-11T04:33:06", "createdAtHuman": "11 Jan 2022", "createdAtDiff": "2 years ago", "updatedAt": "2022-01-11T04:33:06", "updatedAtHuman": "11 Jan 2022", "updatedAtDiff": "2 years ago"}, {"id": 12054, "parentId": 12047, "materialId": 31661, "userId": 6709, "content": "Derek Au, thank you for the insight! Appreciate the help. I will give that Pinnell-comparison a shot and see what we can learn. ", "filename": null, "user": {"id": 6709, "name": "Nathan", "locale": "en", "profile": {"username": null, "title": null, "description": null, "avatar": "/uploads/profiles/98/xs_4598.6014503eb1d64.jpg", "countryId": null, "countryName": null, "url": null, "pinterest": null, "facebook": null, "instagram": "nonathanyes", "artaxis": null, "paypal": null}, "is_patron": 1, "material_image_count": 61, "createdAt": "2018-11-30T06:44:44", "updatedAt": "2023-11-08T00:39:49"}, "createdAt": "2022-01-11T17:50:06", "createdAtHuman": "11 Jan 2022", "createdAtDiff": "2 years ago", "updatedAt": "2022-01-11T17:50:06", "updatedAtHuman": "11 Jan 2022", "updatedAtDiff": "2 years ago"}, {"id": 17220, "parentId": null, "materialId": 31661, "userId": 12169, "content": "Does anyone happen to know which Steve? There's quite a few really great Steve's who have gone through Alfred. ", "filename": null, "user": {"id": 12169, "name": "Nick Bivins", "locale": "en", "profile": {"username": "nbivins", "title": "Artist / Teacher / Athlete / Coach / Brewer / Dude", "description": null, "avatar": "/uploads/profiles/57/xs_4757.60414846305ef.jpg", "countryId": null, "countryName": null, "url": "www.nicholasbivins.com", "pinterest": null, "facebook": null, "instagram": "nbivins/", "artaxis": "nicholas-bivins/", "paypal": null}, "is_patron": 0, "material_image_count": 0, "createdAt": "2019-11-05T06:53:54", "updatedAt": "2023-12-06T23:22:02"}, "createdAt": "2023-02-13T23:34:31", "createdAtHuman": "13 Feb 2023", "createdAtDiff": "1 year ago", "updatedAt": "2023-02-15T20:38:19", "updatedAtHuman": "15 Feb 2023", "updatedAtDiff": "1 year ago"}, {"id": 19989, "parentId": null, "materialId": 31661, "userId": 7, "content": "Hi Jeph, I have a few celadon recipes that settle quickly as well. Rather than changing the chemistry by adding kaolin I would first try flocculating with epsom salt solution (just add drop by drop, it\u2019s strong!) or even vinegar. Please consider adding a photo so we can see the results!\n\nEDIT: I accidentally wrote deflocculate, it should say flocculate, sorry!", "filename": null, "user": {"id": 7, "name": "Derek Au", "locale": "en", "profile": {"username": "derekau", "title": "The porcelain road is bumpy.", "description": "I'm an American ceramicist who just moved to Philadelphia where I am an Associate Artist at [The Clay Studio](https://www.theclaystudio.org/).  Previously I was a long-term Artist in Residence at the [Red Lodge Clay Center](https://www.redlodgeclaycenter.com/).  Before returning to the US I spent 12 years in Jingdezhen, China making functional porcelain.", "avatar": "/uploads/profiles/1/xs_1.5ff31a2dbb1e6.jpg", "countryId": null, "countryName": null, "url": "www.derekau.net", "pinterest": "", "facebook": "glazyrecipes", "instagram": "glazyorg", "artaxis": "derek-au", "paypal": ""}, "is_patron": 1, "material_image_count": 1666, "createdAt": "2015-08-08T06:37:19", "updatedAt": "2024-10-06T14:34:38"}, "createdAt": "2023-11-02T13:48:01", "createdAtHuman": "02 Nov 2023", "createdAtDiff": "11 months ago", "updatedAt": "2023-11-02T14:01:49", "updatedAtHuman": "02 Nov 2023", "updatedAtDiff": "11 months ago"}, {"id": 19990, "parentId": null, "materialId": 31661, "userId": 15551, "content": "Small correction, Epsom Salts (Magnesium Sulfate) is a flocculant, ", "filename": null, "user": {"id": 15551, "name": "James Tingey", "locale": "en", "profile": {"username": "jamestingey", "title": null, "description": "", "countryId": null, "countryName": null, "url": "www.jamestingey.com", "pinterest": null, "facebook": null, "instagram": "jamestingey", "artaxis": "james-tingey", "paypal": null}, "is_patron": 0, "material_image_count": 103, "createdAt": "2020-04-07T03:21:03", "updatedAt": "2024-10-10T16:52:43"}, "createdAt": "2023-11-02T13:59:50", "createdAtHuman": "02 Nov 2023", "createdAtDiff": "11 months ago", "updatedAt": "2023-11-02T13:59:50", "updatedAtHuman": "02 Nov 2023", "updatedAtDiff": "11 months ago"}, {"id": 19991, "parentId": 19990, "materialId": 31661, "userId": 7, "content": "James Tingey ha thanks james! i edited my comment ", "filename": null, "user": {"id": 7, "name": "Derek Au", "locale": "en", "profile": {"username": "derekau", "title": "The porcelain road is bumpy.", "description": "I'm an American ceramicist who just moved to Philadelphia where I am an Associate Artist at [The Clay Studio](https://www.theclaystudio.org/).  Previously I was a long-term Artist in Residence at the [Red Lodge Clay Center](https://www.redlodgeclaycenter.com/).  Before returning to the US I spent 12 years in Jingdezhen, China making functional porcelain.", "avatar": "/uploads/profiles/1/xs_1.5ff31a2dbb1e6.jpg", "countryId": null, "countryName": null, "url": "www.derekau.net", "pinterest": "", "facebook": "glazyrecipes", "instagram": "glazyorg", "artaxis": "derek-au", "paypal": ""}, "is_patron": 1, "material_image_count": 1666, "createdAt": "2015-08-08T06:37:19", "updatedAt": "2024-10-06T14:34:38"}, "createdAt": "2023-11-02T14:02:08", "createdAtHuman": "02 Nov 2023", "createdAtDiff": "11 months ago", "updatedAt": "2023-11-02T14:02:08", "updatedAtHuman": "02 Nov 2023", "updatedAtDiff": "11 months ago"}], "translations": [{"id": 25898, "name": "Steve's Blue-Green Celadon", "other_names": null, "description": null, "locale": "en"}], "createdByUser": {"id": 7337, "name": "Alfred Grinding Room - Glazes", "locale": "en", "profile": {"username": "alfredgrindingroom", "title": null, "description": null, "countryId": null, "countryName": null, "url": "http://www.alfredgrindingroom.com/", "pinterest": null, "facebook": null, "instagram": null, "artaxis": null, "paypal": null}, "is_patron": 1, "material_image_count": 345, "createdAt": "2019-02-07T13:46:17", "updatedAt": "2022-04-14T18:56:35"}}}