{"data": {"id": 31674, "parentId": null, "children": [], "siblings": [], "revisionParentId": null, "revisionChildren": [], "name": "Woo Yellow", "otherNames": null, "formula": null, "description": null, "isAnalysis": false, "isPrimitive": false, "isArchived": true, "default_locale": "en", "materialStateId": 2, "materialStateName": "Production", "materialTypeId": 930, "baseTypeId": 460, "materialType": {"id": 930, "parentMaterialType": {"id": 920, "parentMaterialType": {"id": 460, "parentMaterialType": {"id": 100}}}}, "fromOrtonConeId": 34, "fromOrtonConeName": "10", "toOrtonConeId": 34, "toOrtonConeName": "10", "surfaceTypeId": 2, "surfaceTypeName": "Stony Matte", "transparencyTypeId": 1, "transparencyTypeName": "Opaque", "kilnSchedule": null, "waterAmount": null, "specificGravity": null, "thumbnailId": 10426, "ratingTotal": 0, "ratingNumber": 0, "ratingAverage": "0.00", "isPrivate": false, "createdByUserId": 7337, "createdAt": "2019-02-28T14:44:31", "createdAtHuman": "28 Feb 2019", "createdAtDiff": "5 years ago", "updatedAt": "2023-09-14T14:42:54", "updatedAtHuman": "14 Sep 2023", "updatedAtDiff": "1 year ago", "materialComponentTotalAmount": 103, "atmospheres": [{"id": 1, "name": "Oxidation"}, {"id": 3, "name": "Reduction"}], "materialComponents": [{"percentageAmount": "34.0000", "isAdditional": false, "material": {"id": 15470, "name": "Minspar 200", "isAnalysis": false, "isPrimitive": true, "isPrivate": false, "isArchived": true, "materialStateId": 2, "analysis": {"percentageAnalysis": {"SiO2": "68.9053", "Al2O3": "18.5819", "Na2O": "6.5292", "K2O": "4.1181", "CaO": "1.5065", "Fe2O3": "0.0590", "loi": "0.3000"}, "umfAnalysis": {"SiO2": "6.5185", "Al2O3": "1.0359", "Na2O": "0.5988", "K2O": "0.2485", "CaO": "0.1527", "Fe2O3": "0.0021", "SiO2Al2O3Ratio": "6.2926", "R2OTotal": "0.8473", "ROTotal": "0.1527"}, "xUmfAnalysis": {"SiO2": "6.5049", "Al2O3": "1.0337", "Na2O": "0.5975", "K2O": "0.2480", "CaO": "0.1524", "Fe2O3": "0.0021", "SiO2Al2O3Ratio": "6.2926", "SiO2xAl2O3Ratio": "6.2926", "xAl2O3": "1.0337", "R2OTotal": "0.8455", "ROTotal": "0.1545"}, "molPercentageAnalysis": {"SiO2": "76.1819", "Al2O3": "12.1066", "Na2O": "6.9981", "K2O": "2.9042", "CaO": "1.7846", "Fe2O3": "0.0245"}, "formulaAnalysis": {"SiO2": "6.5185", "Al2O3": "1.0359", "Na2O": "0.5988", "K2O": "0.2485", "CaO": "0.1527", "Fe2O3": "0.0021"}, "thermalExpansion": "7.7258", "weight": "0.0000", "oxideWeight": "566.7070"}, "thumbnail": {"id": 16822, "materialId": 15470, "title": null, "filename": "15470.5de7d0a880076.jpg", "createdByUserId": 7, "createdAtDiff": "4 years ago"}}}, {"percentageAmount": "25.0000", "isAdditional": false, "material": {"id": 15062, "name": "Barium Carbonate", "isAnalysis": false, "isPrimitive": true, "isPrivate": false, "isArchived": true, "materialStateId": 2, "analysis": {"percentageAnalysis": {"BaO": "77.6600", "loi": "22.3400"}, "umfAnalysis": {"BaO": "1.0000", "SiO2Al2O3Ratio": "0.0000", "R2OTotal": "0.0000", "ROTotal": "1.0000"}, "xUmfAnalysis": {"BaO": "1.0000", "SiO2Al2O3Ratio": "0.0000", "SiO2xAl2O3Ratio": null, "xAl2O3": null, "R2OTotal": "0.0000", "ROTotal": "1.0000"}, "molPercentageAnalysis": {"BaO": "100.0000"}, "formulaAnalysis": {"BaO": "1.0000"}, "thermalExpansion": "12.9000", "weight": "153.3000", "oxideWeight": "153.3271"}, "thumbnail": {"id": 4881, "materialId": 15062, "title": "", "filename": "15062.5a6a6a1f3f446.jpg", "createdByUserId": 1, "createdAtDiff": "6 years ago"}}}, {"percentageAmount": "15.0000", "isAdditional": false, "material": {"id": 15469, "name": "Zircopax", "isAnalysis": false, "isPrimitive": true, "isPrivate": false, "isArchived": true, "materialStateId": 2, "analysis": {"percentageAnalysis": {"SiO2": "32.7779", "ZrO2": "67.2221", "loi": "0.0000"}, "umfAnalysis": {"SiO2Al2O3Ratio": "0.0000", "R2OTotal": "0.0000", "ROTotal": "0.0000"}, "xUmfAnalysis": {"SiO2Al2O3Ratio": "0.0000", "SiO2xAl2O3Ratio": null, "xAl2O3": null, "R2OTotal": "0.0000", "ROTotal": "0.0000"}, "molPercentageAnalysis": {"SiO2": "49.9997", "ZrO2": "50.0003"}, "formulaAnalysis": {"SiO2": "1.0000", "ZrO2": "1.0000"}, "thermalExpansion": "2.4917", "weight": "183.3350", "oxideWeight": "183.3075"}, "thumbnail": {"id": 4912, "materialId": 15469, "title": "", "filename": "15469.5a6a6d4b393c5.jpg", "createdByUserId": 1, "createdAtDiff": "6 years ago"}}}, {"percentageAmount": "12.0000", "isAdditional": false, "material": {"id": 15135, "name": "Dolomite", "isAnalysis": false, "isPrimitive": true, "isPrivate": false, "isArchived": true, "materialStateId": 2, "analysis": {"percentageAnalysis": {"MgO": "21.9081", "CaO": "30.4819", "loi": "47.6100"}, "umfAnalysis": {"MgO": "0.5000", "CaO": "0.5000", "SiO2Al2O3Ratio": "0.0000", "R2OTotal": "0.0000", "ROTotal": "1.0000"}, "xUmfAnalysis": {"MgO": "0.5000", "CaO": "0.5000", "SiO2Al2O3Ratio": "0.0000", "SiO2xAl2O3Ratio": null, "xAl2O3": null, "R2OTotal": "0.0000", "ROTotal": "1.0000"}, "molPercentageAnalysis": {"MgO": "50.0000", "CaO": "50.0000"}, "formulaAnalysis": {"MgO": "0.5000", "CaO": "0.5000"}, "thermalExpansion": "9.6983", "weight": "96.3900", "oxideWeight": "96.3823"}, "thumbnail": {"id": 4892, "materialId": 15135, "title": "", "filename": "15135.5a6a6b56886ec.jpg", "createdByUserId": 1, "createdAtDiff": "6 years ago"}}}, {"percentageAmount": "7.0000", "isAdditional": false, "material": {"id": 15137, "name": "EP Kaolin", "isAnalysis": false, "isPrimitive": true, "isPrivate": false, "isArchived": true, "materialStateId": 2, "analysis": {"percentageAnalysis": {"SiO2": "45.7270", "Al2O3": "37.3603", "Na2O": "0.0681", "K2O": "0.3451", "MgO": "0.1034", "CaO": "0.1849", "P2O5": "0.2601", "TiO2": "0.3804", "Fe2O3": "0.7607", "loi": "14.8100"}, "umfAnalysis": {"SiO2": "71.6261", "Al2O3": "34.4859", "Na2O": "0.1034", "K2O": "0.3448", "MgO": "0.2415", "CaO": "0.3103", "P2O5": "0.1725", "TiO2": "0.4483", "Fe2O3": "0.4483", "SiO2Al2O3Ratio": "2.0770", "R2OTotal": "0.4482", "ROTotal": "0.5518"}, "xUmfAnalysis": {"SiO2": "49.4540", "Al2O3": "23.8106", "Na2O": "0.0714", "K2O": "0.2381", "MgO": "0.1667", "CaO": "0.2143", "P2O5": "0.1191", "TiO2": "0.3095", "Fe2O3": "0.3096", "SiO2Al2O3Ratio": "2.0770", "SiO2xAl2O3Ratio": "2.0503", "xAl2O3": "24.1202", "R2OTotal": "0.3095", "ROTotal": "0.6905"}, "molPercentageAnalysis": {"SiO2": "66.2095", "Al2O3": "31.8779", "Na2O": "0.0956", "K2O": "0.3187", "MgO": "0.2232", "CaO": "0.2869", "P2O5": "0.1594", "TiO2": "0.4144", "Fe2O3": "0.4144"}, "formulaAnalysis": {"SiO2": "2.0770", "Al2O3": "1.0000", "Na2O": "0.0030", "K2O": "0.0100", "MgO": "0.0070", "CaO": "0.0090", "P2O5": "0.0050", "TiO2": "0.0130", "Fe2O3": "0.0130"}, "thermalExpansion": "5.0178", "weight": "0.0000", "oxideWeight": "232.4953"}, "thumbnail": {"id": 4952, "materialId": 15137, "title": "", "filename": "15137.5a6ba32627dcd.jpg", "createdByUserId": 1, "createdAtDiff": "6 years ago"}}}, {"percentageAmount": "7.0000", "isAdditional": false, "material": {"id": 15400, "name": "Silica", "isAnalysis": false, "isPrimitive": true, "isPrivate": false, "isArchived": true, "materialStateId": 2, "analysis": {"percentageAnalysis": {"SiO2": "100.0000", "loi": "0.0000"}, "umfAnalysis": {"SiO2Al2O3Ratio": "0.0000", "R2OTotal": "0.0000", "ROTotal": "0.0000"}, "xUmfAnalysis": {"SiO2Al2O3Ratio": "0.0000", "SiO2xAl2O3Ratio": null, "xAl2O3": null, "R2OTotal": "0.0000", "ROTotal": "0.0000"}, "molPercentageAnalysis": {"SiO2": "100.0000"}, "formulaAnalysis": {"SiO2": "1.0000"}, "thermalExpansion": "3.5000", "weight": "60.1000", "oxideWeight": "60.0844"}, "thumbnail": {"id": 4900, "materialId": 15400, "title": "", "filename": "15400.5a6a6c135b2e7.jpg", "createdByUserId": 1, "createdAtDiff": "6 years ago"}}}, {"percentageAmount": "3.0000", "isAdditional": true, "material": {"id": 15387, "name": "Red Iron Oxide", "isAnalysis": false, "isPrimitive": true, "isPrivate": false, "isArchived": true, "materialStateId": 2, "analysis": {"percentageAnalysis": {"Fe2O3": "95.0000", "loi": "5.0000"}, "umfAnalysis": {"SiO2Al2O3Ratio": "0.0000", "R2OTotal": "0.0000", "ROTotal": "0.0000"}, "xUmfAnalysis": {"Fe2O3": "1.0000", "SiO2Al2O3Ratio": "0.0000", "SiO2xAl2O3Ratio": null, "xAl2O3": null, "R2OTotal": "0.0000", "ROTotal": "1.0000"}, "molPercentageAnalysis": {"Fe2O3": "100.0000"}, "formulaAnalysis": {"Fe2O3": "1.0000"}, "thermalExpansion": "12.5000", "weight": "0.0000", "oxideWeight": "159.6887"}, "thumbnail": {"id": 4896, "materialId": 15387, "title": "", "filename": "15387.5a6a6bb002155.jpg", "createdByUserId": 1, "createdAtDiff": "6 years ago"}}}], "analysis": {"percentageAnalysis": {"SiO2": "37.4227", "Al2O3": "8.6729", "Na2O": "2.1599", "K2O": "1.3828", "MgO": "2.5594", "CaO": "4.0611", "BaO": "18.8495", "P2O5": "0.0177", "TiO2": "0.0259", "ZrO2": "9.7896", "Fe2O3": "2.8382", "loi": "12.2203"}, "umfAnalysis": {"SiO2": "2.0196", "Al2O3": "0.2758", "Na2O": "0.1130", "K2O": "0.0476", "MgO": "0.2059", "CaO": "0.2348", "BaO": "0.3986", "P2O5": "0.0004", "TiO2": "0.0011", "ZrO2": "0.2576", "Fe2O3": "0.0576", "SiO2Al2O3Ratio": "7.3222", "R2OTotal": "0.1606", "ROTotal": "0.8394"}, "xUmfAnalysis": {"SiO2": "1.9096", "Al2O3": "0.2608", "Na2O": "0.1068", "K2O": "0.0450", "MgO": "0.1947", "CaO": "0.2220", "BaO": "0.3769", "P2O5": "0.0004", "TiO2": "0.0010", "ZrO2": "0.2436", "Fe2O3": "0.0545", "SiO2Al2O3Ratio": "7.3222", "SiO2xAl2O3Ratio": "7.2944", "xAl2O3": "0.2618", "R2OTotal": "0.1519", "ROTotal": "0.8481"}, "molPercentageAnalysis": {"SiO2": "55.9119", "Al2O3": "7.6360", "Na2O": "3.1284", "K2O": "1.3179", "MgO": "5.7007", "CaO": "6.5013", "BaO": "11.0362", "P2O5": "0.0112", "TiO2": "0.0291", "ZrO2": "7.1320", "Fe2O3": "1.5955"}, "formulaAnalysis": {"SiO2": "0.6228", "Al2O3": "0.0851", "Na2O": "0.0348", "K2O": "0.0147", "MgO": "0.0635", "CaO": "0.0724", "BaO": "0.1229", "P2O5": "0.0001", "TiO2": "0.0003", "ZrO2": "0.0794", "Fe2O3": "0.0178"}, "thermalExpansion": "7.7504", "weight": null, "oxideWeight": null}, "images": [{"id": 10426, "materialId": 31674, "title": "Woo Yellow", "description": "", "ortonConeId": 34, "atmosphereId": 3, "is_color_searchable": 1, "dominantRgbR": 76, "dominantRgbG": 69, "dominantRgbB": 42, "dominantHexColor": "4c452a", "secondaryRgbR": 200, "secondaryRgbG": 182, "secondaryRgbB": 114, "secondaryHexColor": "c8b672", "filename": "31674.5c77f3dd7a5e5.jpg", "isPrivate": false, "createdByUser": {"id": 7337, "name": "Alfred Grinding Room - Glazes", "locale": "en", "profile": {"username": "alfredgrindingroom", "title": null, "description": null, "countryId": null, "countryName": null, "url": "http://www.alfredgrindingroom.com/", "pinterest": null, "facebook": null, "instagram": null, "artaxis": null, "paypal": null}, "is_patron": 1, "material_image_count": 345, "createdAt": "2019-02-07T13:46:17", "updatedAt": "2022-04-14T18:56:35"}, "createdByUserId": 7337, "createdAt": "2019-02-28T14:44:46", "createdAtHuman": "28 Feb 2019", "createdAtDiff": "5 years ago", "updatedAt": "2019-02-28T14:44:46", "updatedAtHuman": "28 Feb 2019", "updatedAtDiff": "5 years ago"}, {"id": 10427, "materialId": 31674, "title": "Woo Yellow", "description": "", "ortonConeId": 34, "atmosphereId": 1, "is_color_searchable": 1, "dominantRgbR": 85, "dominantRgbG": 82, "dominantRgbB": 70, "dominantHexColor": "555246", "secondaryRgbR": 223, "secondaryRgbG": 216, "secondaryRgbB": 194, "secondaryHexColor": "dfd8c2", "filename": "31674.5c77f3e9ef5ed.jpg", "isPrivate": false, "createdByUser": {"id": 7337, "name": "Alfred Grinding Room - Glazes", "locale": "en", "profile": {"username": "alfredgrindingroom", "title": null, "description": null, "countryId": null, "countryName": null, "url": "http://www.alfredgrindingroom.com/", "pinterest": null, "facebook": null, "instagram": null, "artaxis": null, "paypal": null}, "is_patron": 1, "material_image_count": 345, "createdAt": "2019-02-07T13:46:17", "updatedAt": "2022-04-14T18:56:35"}, "createdByUserId": 7337, "createdAt": "2019-02-28T14:44:58", "createdAtHuman": "28 Feb 2019", "createdAtDiff": "5 years ago", "updatedAt": "2019-02-28T14:44:58", "updatedAtHuman": "28 Feb 2019", "updatedAtDiff": "5 years ago"}], "thumbnail": {"id": 10426, "materialId": 31674, "title": "Woo Yellow", "description": "", "ortonConeId": 34, "atmosphereId": 3, "is_color_searchable": 1, "dominantRgbR": 76, "dominantRgbG": 69, "dominantRgbB": 42, "dominantHexColor": "4c452a", "secondaryRgbR": 200, "secondaryRgbG": 182, "secondaryRgbB": 114, "secondaryHexColor": "c8b672", "filename": "31674.5c77f3dd7a5e5.jpg", "isPrivate": false, "createdByUser": {"id": 7337, "name": "Alfred Grinding Room - Glazes", "locale": "en", "profile": {"username": "alfredgrindingroom", "title": null, "description": null, "countryId": null, "countryName": null, "url": "http://www.alfredgrindingroom.com/", "pinterest": null, "facebook": null, "instagram": null, "artaxis": null, "paypal": null}, "is_patron": 1, "material_image_count": 345, "createdAt": "2019-02-07T13:46:17", "updatedAt": "2022-04-14T18:56:35"}, "createdByUserId": 7337, "createdAt": "2019-02-28T14:44:46", "createdAtHuman": "28 Feb 2019", "createdAtDiff": "5 years ago", "updatedAt": "2019-02-28T14:44:46", "updatedAtHuman": "28 Feb 2019", "updatedAtDiff": "5 years ago"}, "reviews": [], "comments": [{"id": 19317, "parentId": null, "materialId": 31674, "userId": 46475, "content": "I'm having trouble understanding the chemistry on this recipe. The glaze seems to fire to a matte texture but on the UMF chart it seems like it should be firing clear.", "filename": null, "user": {"id": 46475, "name": "Ernest Landrito", "locale": "en", "profile": null, "is_patron": 0, "material_image_count": 8, "createdAt": "2023-03-09T20:23:52", "updatedAt": "2023-10-12T03:39:51"}, "createdAt": "2023-09-14T04:32:16", "createdAtHuman": "14 Sep 2023", "createdAtDiff": "1 year ago", "updatedAt": "2023-09-14T04:32:16", "updatedAtHuman": "14 Sep 2023", "updatedAtDiff": "1 year ago"}, {"id": 19321, "parentId": 19317, "materialId": 31674, "userId": 1997, "content": "Ernest Landrito  The matte quality of this glaze is due to micro crystals forming on the surface during cooling. The UMF sits in the gloss area of Stull's chart but you have to take into account that Stull's tests were made with a porcelain glaze with a UMF flux ratio of 0.3 K2O : 0.7 CaO. This glaze has a very different flux ratio, 0.15: 0.85, and different oxides as well. The amount of alumina and silca  (glassformer) in this glaze is very low for cone 10. The combined RO fluxes are too much to be held in solution by the molten glass and precipitate out upon cooling, rising to the surface of the glaze in the form of tiny crystals making it matte.", "filename": null, "user": {"id": 1997, "name": "Marc Egan", "locale": "en", "profile": {"username": "eganyyzgmailcom", "title": "", "description": null, "countryId": null, "countryName": null, "url": "marcegan.com", "pinterest": "", "facebook": null, "instagram": "pointyview", "artaxis": null, "paypal": null}, "is_patron": 1, "material_image_count": 240, "createdAt": "2016-12-05T18:07:40", "updatedAt": "2024-08-05T01:06:25"}, "createdAt": "2023-09-14T12:46:28", "createdAtHuman": "14 Sep 2023", "createdAtDiff": "1 year ago", "updatedAt": "2023-09-14T13:29:42", "updatedAtHuman": "14 Sep 2023", "updatedAtDiff": "1 year ago"}, {"id": 19324, "parentId": null, "materialId": 31674, "userId": 35402, "content": "Amazingly clear explanation, Marc. Thank you. ", "filename": null, "user": {"id": 35402, "name": "Cath Manegold", "locale": "en", "profile": {"username": "csmanegold", "title": null, "description": null, "countryId": null, "countryName": null, "url": "bridporthill.com", "pinterest": null, "facebook": "groups/437088104295138", "instagram": "csmanegold.bridporthill/", "artaxis": null, "paypal": null}, "is_patron": 0, "material_image_count": 26, "createdAt": "2022-03-29T18:28:58", "updatedAt": "2024-08-27T10:24:40"}, "createdAt": "2023-09-14T14:42:54", "createdAtHuman": "14 Sep 2023", "createdAtDiff": "1 year ago", "updatedAt": "2023-09-14T14:42:54", "updatedAtHuman": "14 Sep 2023", "updatedAtDiff": "1 year ago"}], "translations": [{"id": 25911, "name": "Woo Yellow", "other_names": null, "description": null, "locale": "en"}], "createdByUser": {"id": 7337, "name": "Alfred Grinding Room - Glazes", "locale": "en", "profile": {"username": "alfredgrindingroom", "title": null, "description": null, "countryId": null, "countryName": null, "url": "http://www.alfredgrindingroom.com/", "pinterest": null, "facebook": null, "instagram": null, "artaxis": null, "paypal": null}, "is_patron": 1, "material_image_count": 345, "createdAt": "2019-02-07T13:46:17", "updatedAt": "2022-04-14T18:56:35"}}}