{"data": {"id": 32110, "parentId": null, "children": [], "siblings": [], "revisionParentId": null, "revisionChildren": [], "name": "V.C. Opaque Satin", "otherNames": null, "formula": null, "description": null, "isAnalysis": false, "isPrimitive": false, "isArchived": true, "default_locale": "en", "materialStateId": 2, "materialStateName": "Production", "materialTypeId": 480, "baseTypeId": 460, "materialType": {"id": 480, "parentMaterialType": {"id": 460, "parentMaterialType": {"id": 100}}}, "fromOrtonConeId": 20, "fromOrtonConeName": "04", "toOrtonConeId": 20, "toOrtonConeName": "04", "surfaceTypeId": 7, "surfaceTypeName": "Satin-matte", "transparencyTypeId": 1, "transparencyTypeName": "Opaque", "kilnSchedule": null, "waterAmount": null, "specificGravity": null, "thumbnailId": 29718, "ratingTotal": 0, "ratingNumber": 0, "ratingAverage": "0.00", "isPrivate": false, "createdByUserId": 7337, "createdAt": "2019-03-07T15:06:01", "createdAtHuman": "07 Mar 2019", "createdAtDiff": "5 years ago", "updatedAt": "2023-09-25T16:12:25", "updatedAtHuman": "25 Sep 2023", "updatedAtDiff": "1 year ago", "materialComponentTotalAmount": 100, "atmospheres": [{"id": 1, "name": "Oxidation"}, {"id": 3, "name": "Reduction"}], "materialComponents": [{"percentageAmount": "72.0000", "isAdditional": false, "material": {"id": 15168, "name": "Ferro Frit 3124", "isAnalysis": false, "isPrimitive": true, "isPrivate": false, "isArchived": true, "materialStateId": 2, "analysis": {"percentageAnalysis": {"SiO2": "55.3013", "Al2O3": "9.8977", "B2O3": "13.7671", "Na2O": "6.2839", "K2O": "0.6773", "CaO": "14.0728", "loi": "0.0000"}, "umfAnalysis": {"SiO2": "2.5599", "Al2O3": "0.2700", "B2O3": "0.5500", "Na2O": "0.2820", "K2O": "0.0200", "CaO": "0.6980", "SiO2Al2O3Ratio": "9.4813", "R2OTotal": "0.3020", "ROTotal": "0.6980"}, "xUmfAnalysis": {"SiO2": "2.5599", "Al2O3": "0.2700", "B2O3": "0.5500", "Na2O": "0.2820", "K2O": "0.0200", "CaO": "0.6980", "SiO2Al2O3Ratio": "9.4813", "SiO2xAl2O3Ratio": "9.4813", "xAl2O3": "0.2700", "R2OTotal": "0.3020", "ROTotal": "0.6980"}, "molPercentageAnalysis": {"SiO2": "58.4469", "Al2O3": "6.1644", "B2O3": "12.5574", "Na2O": "6.4384", "K2O": "0.4566", "CaO": "15.9363"}, "formulaAnalysis": {"SiO2": "2.5599", "Al2O3": "0.2700", "B2O3": "0.5500", "Na2O": "0.2820", "K2O": "0.0200", "CaO": "0.6980"}, "thermalExpansion": "7.7247", "weight": "279.6500", "oxideWeight": "278.1418"}, "thumbnail": {"id": 4939, "materialId": 15168, "title": "", "filename": "15168.5a6ba1d960dfd.jpg", "createdByUserId": 1, "createdAtDiff": "6 years ago"}}}, {"percentageAmount": "12.0000", "isAdditional": false, "material": {"id": 16050, "name": "Neph Sye A270", "isAnalysis": false, "isPrimitive": true, "isPrivate": false, "isArchived": true, "materialStateId": 2, "analysis": {"percentageAnalysis": {"SiO2": "60.2000", "Al2O3": "23.6000", "Na2O": "10.4000", "K2O": "4.8500", "MgO": "0.0200", "CaO": "0.3900", "Fe2O3": "0.0800", "loi": "0.5000"}, "umfAnalysis": {"SiO2": "4.4188", "Al2O3": "1.0208", "Na2O": "0.7401", "K2O": "0.2271", "MgO": "0.0022", "CaO": "0.0307", "Fe2O3": "0.0022", "SiO2Al2O3Ratio": "4.3287", "R2OTotal": "0.9671", "ROTotal": "0.0329"}, "xUmfAnalysis": {"SiO2": "4.4091", "Al2O3": "1.0186", "Na2O": "0.7384", "K2O": "0.2266", "MgO": "0.0022", "CaO": "0.0306", "Fe2O3": "0.0022", "SiO2Al2O3Ratio": "4.3287", "SiO2xAl2O3Ratio": "4.3287", "xAl2O3": "1.0186", "R2OTotal": "0.9650", "ROTotal": "0.0350"}, "molPercentageAnalysis": {"SiO2": "68.5954", "Al2O3": "15.8468", "Na2O": "11.4882", "K2O": "3.5251", "MgO": "0.0340", "CaO": "0.4762", "Fe2O3": "0.0343"}, "formulaAnalysis": {"SiO2": "4.4188", "Al2O3": "1.0208", "Na2O": "0.7401", "K2O": "0.2271", "MgO": "0.0022", "CaO": "0.0307", "Fe2O3": "0.0022"}, "thermalExpansion": "9.3351", "weight": "0.0000", "oxideWeight": "439.0088"}, "thumbnail": {"id": 24171, "materialId": 16050, "title": null, "filename": "16050.5edd51cde24b6.jpg", "createdByUserId": 8949, "createdAtDiff": "4 years ago"}}}, {"percentageAmount": "10.0000", "isAdditional": false, "material": {"id": 15400, "name": "Silica", "isAnalysis": false, "isPrimitive": true, "isPrivate": false, "isArchived": true, "materialStateId": 2, "analysis": {"percentageAnalysis": {"SiO2": "100.0000", "loi": "0.0000"}, "umfAnalysis": {"SiO2Al2O3Ratio": "0.0000", "R2OTotal": "0.0000", "ROTotal": "0.0000"}, "xUmfAnalysis": {"SiO2Al2O3Ratio": "0.0000", "SiO2xAl2O3Ratio": null, "xAl2O3": null, "R2OTotal": "0.0000", "ROTotal": "0.0000"}, "molPercentageAnalysis": {"SiO2": "100.0000"}, "formulaAnalysis": {"SiO2": "1.0000"}, "thermalExpansion": "3.5000", "weight": "60.1000", "oxideWeight": "60.0844"}, "thumbnail": {"id": 4900, "materialId": 15400, "title": "", "filename": "15400.5a6a6c135b2e7.jpg", "createdByUserId": 1, "createdAtDiff": "6 years ago"}}}, {"percentageAmount": "6.0000", "isAdditional": false, "material": {"id": 15137, "name": "EP Kaolin", "isAnalysis": false, "isPrimitive": true, "isPrivate": false, "isArchived": true, "materialStateId": 2, "analysis": {"percentageAnalysis": {"SiO2": "45.7270", "Al2O3": "37.3603", "Na2O": "0.0681", "K2O": "0.3451", "MgO": "0.1034", "CaO": "0.1849", "P2O5": "0.2601", "TiO2": "0.3804", "Fe2O3": "0.7607", "loi": "14.8100"}, "umfAnalysis": {"SiO2": "71.6261", "Al2O3": "34.4859", "Na2O": "0.1034", "K2O": "0.3448", "MgO": "0.2415", "CaO": "0.3103", "P2O5": "0.1725", "TiO2": "0.4483", "Fe2O3": "0.4483", "SiO2Al2O3Ratio": "2.0770", "R2OTotal": "0.4482", "ROTotal": "0.5518"}, "xUmfAnalysis": {"SiO2": "49.4540", "Al2O3": "23.8106", "Na2O": "0.0714", "K2O": "0.2381", "MgO": "0.1667", "CaO": "0.2143", "P2O5": "0.1191", "TiO2": "0.3095", "Fe2O3": "0.3096", "SiO2Al2O3Ratio": "2.0770", "SiO2xAl2O3Ratio": "2.0503", "xAl2O3": "24.1202", "R2OTotal": "0.3095", "ROTotal": "0.6905"}, "molPercentageAnalysis": {"SiO2": "66.2095", "Al2O3": "31.8779", "Na2O": "0.0956", "K2O": "0.3187", "MgO": "0.2232", "CaO": "0.2869", "P2O5": "0.1594", "TiO2": "0.4144", "Fe2O3": "0.4144"}, "formulaAnalysis": {"SiO2": "2.0770", "Al2O3": "1.0000", "Na2O": "0.0030", "K2O": "0.0100", "MgO": "0.0070", "CaO": "0.0090", "P2O5": "0.0050", "TiO2": "0.0130", "Fe2O3": "0.0130"}, "thermalExpansion": "5.0178", "weight": "0.0000", "oxideWeight": "232.4953"}, "thumbnail": {"id": 4952, "materialId": 15137, "title": "", "filename": "15137.5a6ba32627dcd.jpg", "createdByUserId": 1, "createdAtDiff": "6 years ago"}}}], "analysis": {"percentageAnalysis": {"SiO2": "59.7846", "Al2O3": "12.2000", "B2O3": "9.9123", "Na2O": "5.7765", "K2O": "1.0904", "MgO": "0.0086", "CaO": "10.1903", "P2O5": "0.0156", "TiO2": "0.0228", "Fe2O3": "0.0552", "loi": "0.9486"}, "umfAnalysis": {"SiO2": "3.4704", "Al2O3": "0.4173", "B2O3": "0.4966", "Na2O": "0.3251", "K2O": "0.0404", "MgO": "0.0007", "CaO": "0.6338", "P2O5": "0.0004", "TiO2": "0.0010", "Fe2O3": "0.0012", "SiO2Al2O3Ratio": "8.3157", "R2OTotal": "0.3654", "ROTotal": "0.6346"}, "xUmfAnalysis": {"SiO2": "3.4662", "Al2O3": "0.4168", "B2O3": "0.4960", "Na2O": "0.3247", "K2O": "0.0403", "MgO": "0.0007", "CaO": "0.6330", "P2O5": "0.0004", "TiO2": "0.0010", "Fe2O3": "0.0012", "SiO2Al2O3Ratio": "8.3157", "SiO2xAl2O3Ratio": "8.2959", "xAl2O3": "0.4178", "R2OTotal": "0.3650", "ROTotal": "0.6350"}, "molPercentageAnalysis": {"SiO2": "64.4229", "Al2O3": "7.7471", "B2O3": "9.2185", "Na2O": "6.0344", "K2O": "0.7495", "MgO": "0.0138", "CaO": "11.7658", "P2O5": "0.0071", "TiO2": "0.0185", "Fe2O3": "0.0224"}, "formulaAnalysis": {"SiO2": "0.9950", "Al2O3": "0.1197", "B2O3": "0.1424", "Na2O": "0.0932", "K2O": "0.0116", "MgO": "0.0002", "CaO": "0.1817", "P2O5": "0.0001", "TiO2": "0.0003", "Fe2O3": "0.0003"}, "thermalExpansion": "7.3527", "weight": null, "oxideWeight": null}, "images": [{"id": 29718, "materialId": 32110, "title": "V.C. Opaque Satin", "description": null, "ortonConeId": 20, "atmosphereId": 1, "is_color_searchable": 1, "dominantRgbR": 132, "dominantRgbG": 98, "dominantRgbB": 83, "dominantHexColor": "846253", "secondaryRgbR": 35, "secondaryRgbG": 36, "secondaryRgbB": 30, "secondaryHexColor": "23241e", "filename": "32110.5f7c87ad062f6.jpg", "isPrivate": false, "createdByUser": {"id": 7337, "name": "Alfred Grinding Room - Glazes", "locale": "en", "profile": {"username": "alfredgrindingroom", "title": null, "description": null, "countryId": null, "countryName": null, "url": "http://www.alfredgrindingroom.com/", "pinterest": null, "facebook": null, "instagram": null, "artaxis": null, "paypal": null}, "is_patron": 1, "material_image_count": 345, "createdAt": "2019-02-07T13:46:17", "updatedAt": "2022-04-14T18:56:35"}, "createdByUserId": 7337, "createdAt": "2020-10-06T15:05:17", "createdAtHuman": "06 Oct 2020", "createdAtDiff": "4 years ago", "updatedAt": "2020-10-06T15:05:17", "updatedAtHuman": "06 Oct 2020", "updatedAtDiff": "4 years ago"}, {"id": 29719, "materialId": 32110, "title": "V.C. Opaque Satin", "description": null, "ortonConeId": 17, "atmosphereId": 1, "is_color_searchable": 1, "dominantRgbR": 145, "dominantRgbG": 113, "dominantRgbB": 96, "dominantHexColor": "917160", "secondaryRgbR": 33, "secondaryRgbG": 34, "secondaryRgbB": 29, "secondaryHexColor": "21221d", "filename": "32110.5f7c87baa0692.jpg", "isPrivate": false, "createdByUser": {"id": 7337, "name": "Alfred Grinding Room - Glazes", "locale": "en", "profile": {"username": "alfredgrindingroom", "title": null, "description": null, "countryId": null, "countryName": null, "url": "http://www.alfredgrindingroom.com/", "pinterest": null, "facebook": null, "instagram": null, "artaxis": null, "paypal": null}, "is_patron": 1, "material_image_count": 345, "createdAt": "2019-02-07T13:46:17", "updatedAt": "2022-04-14T18:56:35"}, "createdByUserId": 7337, "createdAt": "2020-10-06T15:05:31", "createdAtHuman": "06 Oct 2020", "createdAtDiff": "4 years ago", "updatedAt": "2020-10-06T15:05:31", "updatedAtHuman": "06 Oct 2020", "updatedAtDiff": "4 years ago"}, {"id": 108460, "materialId": 32110, "title": "fired to ^05 Slow, 10 min hold", "description": "crazed on ^5 porcelain. ", "ortonConeId": 19, "atmosphereId": 1, "is_color_searchable": 1, "dominantRgbR": 172, "dominantRgbG": 169, "dominantRgbB": 162, "dominantHexColor": "aca9a2", "secondaryRgbR": 230, "secondaryRgbG": 227, "secondaryRgbB": 220, "secondaryHexColor": "e6e3dc", "filename": "32110.6511b1687b368.jpg", "isPrivate": false, "createdByUser": {"id": 53088, "name": "Rachael", "locale": "en", "profile": null, "is_patron": 1, "material_image_count": 58, "createdAt": "2023-09-12T18:49:29", "updatedAt": "2024-06-03T18:05:29"}, "createdByUserId": 53088, "createdAt": "2023-09-25T16:12:25", "createdAtHuman": "25 Sep 2023", "createdAtDiff": "1 year ago", "updatedAt": "2023-09-25T16:12:25", "updatedAtHuman": "25 Sep 2023", "updatedAtDiff": "1 year ago"}], "thumbnail": {"id": 29718, "materialId": 32110, "title": "V.C. Opaque Satin", "description": null, "ortonConeId": 20, "atmosphereId": 1, "is_color_searchable": 1, "dominantRgbR": 132, "dominantRgbG": 98, "dominantRgbB": 83, "dominantHexColor": "846253", "secondaryRgbR": 35, "secondaryRgbG": 36, "secondaryRgbB": 30, "secondaryHexColor": "23241e", "filename": "32110.5f7c87ad062f6.jpg", "isPrivate": false, "createdByUser": {"id": 7337, "name": "Alfred Grinding Room - Glazes", "locale": "en", "profile": {"username": "alfredgrindingroom", "title": null, "description": null, "countryId": null, "countryName": null, "url": "http://www.alfredgrindingroom.com/", "pinterest": null, "facebook": null, "instagram": null, "artaxis": null, "paypal": null}, "is_patron": 1, "material_image_count": 345, "createdAt": "2019-02-07T13:46:17", "updatedAt": "2022-04-14T18:56:35"}, "createdByUserId": 7337, "createdAt": "2020-10-06T15:05:17", "createdAtHuman": "06 Oct 2020", "createdAtDiff": "4 years ago", "updatedAt": "2020-10-06T15:05:17", "updatedAtHuman": "06 Oct 2020", "updatedAtDiff": "4 years ago"}, "reviews": [], "comments": [], "translations": [{"id": 26286, "name": "V.C. Opaque Satin", "other_names": null, "description": null, "locale": "en"}], "createdByUser": {"id": 7337, "name": "Alfred Grinding Room - Glazes", "locale": "en", "profile": {"username": "alfredgrindingroom", "title": null, "description": null, "countryId": null, "countryName": null, "url": "http://www.alfredgrindingroom.com/", "pinterest": null, "facebook": null, "instagram": null, "artaxis": null, "paypal": null}, "is_patron": 1, "material_image_count": 345, "createdAt": "2019-02-07T13:46:17", "updatedAt": "2022-04-14T18:56:35"}}}